 operating system is UNIX !
 hostname is         nodo05

 force(nodo05) : TURBOMOLE V6.0 5 Feb 2009 at 11:43:16
 Copyright (C) 2009 TURBOMOLE GmbH, Karlsruhe


    2016-01-11 17:52:16.030 



                             T U R B O M O L E   

                          a o f o r c e - program

                        using direct algorithms for

                       SCF level calculations of
                         * harmonic force constants
                         * hyperpolarizabilities
                         * IR and RAMAN intensities

                       DFT level calculations of
                         * harmonic force constants
                         * IR intensities
                                                   
       Stephan Boecker, Peter Deglmann, Filipp Furche and Marco Haeser
                          Quantum Chemistry Group
                          Universitaet  Karlsruhe
                                   Germany

 
 
 
 
     References :
 
       RI-J implementation:
         Peter Deglmann, Klaus May, Filipp Furche, Reinhart Ahlrichs
                 Chem. Phys. Lett. 384:103 (2004)
 
       Efficiency, technical details:
         Peter Deglmann, Filipp Furche, Reinhart Ahlrichs
                 Chem. Phys. Lett. 362:511 (2002)
 
       Search of lowest eigenvalues by iterative diagonalization:
         Peter Deglmann, Filipp Furche
                 J. Chem. Phys. 117:9535 (2002)
 
 


              +--------------------------------------------------+
              | Atomic coordinate, charge and isotop information |
              +--------------------------------------------------+


              atomic coordinates              atom shells charge pseudo isotop
    -2.69176330   -0.00007129   -0.44712612    c      3    6.000    0     0
    -1.69851645   -0.00007332    2.06488947    c      3    6.000    0     0
     0.92683848   -0.00007460    2.49592179    c      3    6.000    0     0
     2.69176331   -0.00007127    0.44712612    c      3    6.000    0     0
     1.69851645   -0.00007331   -2.06488947    c      3    6.000    0     0
    -3.00422546   -0.00010960    3.69235578    h      1    1.000    0     0
     1.65164862   -0.00009936    4.45456855    h      1    1.000    0     0
     3.00422542   -0.00010956   -3.69235581    h      1    1.000    0     0
     5.46170421   -0.00013117    1.01478225    c      3    6.000    0     0
     7.37290032    0.00033137   -0.68855681    c      3    6.000    0     0
     7.04373608    0.00092237   -2.74543891    h      1    1.000    0     0
     5.92883353   -0.00065938    3.05381618    h      1    1.000    0     0
     9.36352819    0.00017228   -0.07445320    h      1    1.000    0     0
    -5.46170422   -0.00013118   -1.01478225    c      3    6.000    0     0
    -5.92883353   -0.00065944   -3.05381619    h      1    1.000    0     0
    -7.37290032    0.00033139    0.68855681    c      3    6.000    0     0
    -7.04373606    0.00092244    2.74543891    h      1    1.000    0     0
    -9.36352819    0.00017229    0.07445322    h      1    1.000    0     0
    -0.92683849   -0.00007461   -2.49592179    c      3    6.000    0     0
    -1.65164853   -0.00009927   -4.45456858    h      1    1.000    0     0
 

     center of nuclear mass  :    0.00000000    0.00000000    0.00000000

     center of nuclear charge:    0.00000000    0.00000321    0.00000000


              +--------------------------------------------------+
              |               basis set information              |
              +--------------------------------------------------+


              we will work with the  1s 3p 5d  7f  9g ... basis set
              ...i.e. with spherical basis functions...


   type   atoms  prim   cont   basis
   ---------------------------------------------------------------------------
    c       10     15      5   sto-3g hondo   [2s1p|6s3p]
    h       10      3      1   sto-3g hondo   [1s|3s]
   ---------------------------------------------------------------------------
   total:   20    180     60
   ---------------------------------------------------------------------------

   total number of primitive shells          :   12
   total number of contracted shells         :   40
   total number of cartesian basis functions :   60
   total number of SCF-basis functions       :   60


 symmetry group of the molecule :   c1 

 the group has the following generators :
   c1(z)

    1 symmetry operations found

 there are 1 real representations :   a   

 maximum number of shells which are related by symmetry :  1


 determining totally symmetric integral contributions 
    - equivalent to irreducible tensor elements - 
 which can be formed within each triple of representations :

             representation triple      contributions

              a     a     a               1

    mo occupation :
   irrep   mo's   occupied
    a       60       35
 
 number of basis functions   :           60
 number of occupied orbitals :           35
 
  MOs are in ASCII format !


 reading orbital data $scfmo  from file mos . 

 orbital characterization : scfconv=6
 

         --------------------------------------------------------------
                   checking mo's by calculating trace(D*S)

              number of electrons : 
                 from trace(D*S)         :   70.000000000879
                 from occupation numbers :   70.000000000000

              molecular charge           :    0.000000000000
         --------------------------------------------------------------

 time elapsed for calculating density matrices :   0.001 sec

 number of non-frozen orbitals          :    60
 number of non-frozen occupied orbitals :    35
 Blocking parameters 
 shells:
    index      start shell   last shell  start bf    last bf    #bf 
       1             1          40             1         60     60
  
           ------------------
           density functional
           ------------------
 B-P86 functional
 exchange:    LDA + Becke (B88)
 correlation: LDA (VWN) + Perdew (P86)
 iterations will be done with small grid
  
 spherical integration : Lebedev's spherical grid
 spherical gridsize    :           3
    i.e. gridpoints    :         302
 value for diffuse not defined
 radial integration    : Chebyshev 2nd kind (scaling 3)
 radial gridsize       :           3
 integration cells     :          20
 partition function    : becke
 partition sharpness   :           3
  
 
 Derivatives of quadrature weights will be included
 
          Overall gridpoints after grid construction =         96318
 Ordering of quadrature gridpoints disabled.
 
 
 
 
 OCCUPIED-OCCUPIED TENSOR SPACES :

          IRREP   tensor space dimension   number of roots

           a              1225                  54
 
 OCCUPIED-VIRTUAL TENSOR SPACES :

          IRREP   tensor space dimension   number of roots

           a               875                  54
 
 
 
 
 CONSTRUCTING integral bounds

 setting up bound for integral derivative estimation

 increment for numerical differentiation : 0.00050000
 
 machine precision:   2.220446049250313E-016

 integral neglect threshold       :  0.10E-09
 integral storage threshold THIZE :  0.10E-04
 integral storage threshold THIME :         5


   disc space (kbyte) allocation for  1 2e-integral file(s) :
   --------------------------------------------------------
   twoint                                                 0
   --------------------------------------------------------

 maximum number of buffers which may be written onto 2e-file(s) =         0

 
 
 
 PREPARING NUMERICAL INTEGRATION
 
 Remaining core memory for DFT =         196 MB
 
 Memory needed per atom    =          42 KiB
 
     i. e.          20 atoms per loop

 Calculating ground state density on molecular grid

 Integral of ground state density: N =   69.99981337012791    


 
 
 CONSTRUCTING first deriv. of <mu|x,y,z|nu> -> Dip. deriv.
  dipole integral derivatives will be neglected if
  expon. factor <0.833333E-10
      ...terminated. cpu:       0.00       wall:       0.00
 
 
 
 
 CONSTRUCTING first deriv. of  <mu|nu>
                               <mu|h|nu>    -> RHS
              second deriv. of <mu|nu>      -> Hessian
                               <mu|h|nu>    -> Hessian
                               nucl. rep.   -> Hessian
     integrals are neglected if expon. factor <  1.000000000000000E-012
      ...terminated. cpu:       0.14       wall:       0.14
 
 
 
 
 CONSTRUCTING second deriv. of 2e energy    -> Hessian
   treating Coulomb (and exchange) contribution
     integrals will be neglected if total contribution <  8.333333333333333E-008
      ...terminated. cpu:       4.75       wall:       4.75
   treating exchange-correlation contribution
      ...terminated. cpu:      17.62       wall:      17.63
 
 
 
 
 CONSTRUCTING S(i,j)xi
      ...terminated. cpu:       0.00       wall:       0.02
 
 
 
 
 CONSTRUCTING <i|x,y,z|j>*S(i,j)xi          -> Dip. deriv.
      ...terminated. cpu:       0.00       wall:       0.00
 
 
 
 
 CONSTRUCTING epsilon(i)*S(i,j)xi*S(i,j)chi -> Hessian
      ...terminated. cpu:       0.00       wall:       0.00
 
 
 
 
 CONSTRUCTING G(a,i)[S(k,l)xi]              -> RHS
              G(i,j)[S(k,l)xi]*S(i,j)chi    -> Hessian
 
         Maximum core memory set to          200 MB
         This corresponds to        7046 vectors in CAO basis
      ...terminated. cpu:       6.67       wall:       6.67
 
 
 
 
 CONSTRUCTING G(mu,nu)[D(kap,lam)]xi
 
          Maximum core memory set to          200 MB
          Atoms treated simultaneously :          20
      ...terminated. cpu:       6.62       wall:       6.62
 
 
 
 
 CONSTRUCTING F(a,i)xi                      -> RHS
              F(i,j)xi*S(i,j)chi            -> Hessian
 
        Maximum core memory set to         200 MB
        This corresponds to        8580 vectors in CAO basis
      ...terminated. cpu:       0.01       wall:       0.01
 
 
 
 
 CONSTRUCTING epsilon(i)*S(a,i)xi           -> RHS
      ...terminated. cpu:       0.00       wall:       0.00
 
 
 
 
 SOLVING CPHF equations
 
 Residuum convergence criterium   :  1.000000000000000E-005
 
 Maximum number of Davidson iterations set to          25
  Switching to small grid
        preparing numerical integration ....
          Overall gridpoints after grid construction =         25920

 Calculating ground state density on molecular grid

 Integral of ground state density: N =   69.99749471741663    




                       Block Davidson iteration


 total number of roots to be determined:  54


 maximum core memory set to   200 MB,
 corresponding to     7046 vectors in CAO basis


 maximum number of simultaneously treated vectors (including degeneracy):  54


 Iteration IRREP Converged      Max. Euclidean
                 roots          residual norm


         0 2 e - integrals written in         0 blocks requiring       0 k-byte

    1       a        0        3.856784714301230D-02
 
    2       a        0        7.093966902320739D-04
 
    3       a       54        7.760593096894868D-06
 

 converged!

  Switching to fine grid
        preparing numerical integration ....
          Overall gridpoints after grid construction =         96318

 Calculating ground state density on molecular grid

 Integral of ground state density: N =   69.99981337012797    



 Iteration IRREP Converged      Max. Euclidean
                 roots          residual norm

    4       a       54        8.207735650524358D-06
 

 converged!

      ...terminated. cpu:      13.16       wall:      13.17
 
 
 
 
 CONSTRUCTING <a|x,y,z|i>*U(a,i)xi          -> Dip. deriv.
      ...terminated. cpu:       0.00       wall:       0.00
 
 
 
 
 CONSTRUCTING RHS(a,i)xi*U(a,i)chi          -> Hessian
      ...terminated. cpu:       0.00       wall:       0.00
 
 
 
 

            -----------------------
            permanent dipole moment
            -----------------------

                                   x                y                z
    electronic part       :   -0.0000000334    -0.0002427244     0.0000000216
     nuclear   part       :    0.0000000331     0.0002247896    -0.0000000272
     total                :   -0.0000000003    -0.0000179348    -0.0000000056

 with reference to the point :   0.0000000        0.0000000        0.0000000
 (given in atomic units)
    | dipole |       :    0.0000455861  debye

 dipole moment written onto $dipole

             -----------------------------------
             rotational and vibrational analysis
             -----------------------------------


            ==============================================================
            ATOMIC WEIGHTS (average over the natural occurance of isotops)
            ==============================================================
            ('*' denotes special isotop !)
              1     c                12.01115
              2     c                12.01115
              3     c                12.01115
              4     c                12.01115
              5     c                12.01115
              6     h                 1.00797
              7     h                 1.00797
              8     h                 1.00797
              9     c                12.01115
             10     c                12.01115
             11     h                 1.00797
             12     h                 1.00797
             13     h                 1.00797
             14     c                12.01115
             15     h                 1.00797
             16     c                12.01115
             17     h                 1.00797
             18     h                 1.00797
             19     c                12.01115
             20     h                 1.00797

          -------------------------------------------------
          CARTESIAN FORCE CONSTANT MATRIX (hartree/bohr**2)
         (translational & rotational space projected out)
          -------------------------------------------------

   ATOM              1 c                           2 c 
                  dx        dy        dz        dx        dy        dz
   1 c     dx  0.6711038
           dy  0.0000030 0.1465948
           dz  0.0029799 0.0000096 0.6963252
   2 c     dx -0.1418860 0.0000007-0.0242266 0.7667776
           dy  0.0000026-0.0618208 0.0000021 0.0000035 0.1295387
           dz -0.0891604-0.0000001-0.3074051-0.0590270-0.0000065 0.7477768
   3 c     dx -0.0191056-0.0000010-0.0921605-0.3711868 0.0000006 0.0059199
           dy  0.0000006 0.0058412-0.0000007 0.0000014-0.0564925 0.0000013
           dz -0.0345084 0.0000005 0.0153941-0.0815254 0.0000004-0.1421133
   4 c     dx  0.0116618 0.0000000 0.0129867-0.0517579-0.0000009 0.0108473
           dy  0.0000000-0.0082452 0.0000005-0.0000007 0.0059341-0.0000006
           dz  0.0129867-0.0000005-0.0675772 0.0667094 0.0000006 0.0499928
   5 c     dx -0.0517579 0.0000007 0.0667095-0.0400450-0.0000002-0.0340805
           dy  0.0000009 0.0059341-0.0000006 0.0000002-0.0056092 0.0000001
           dz  0.0108474 0.0000006 0.0499928-0.0340805-0.0000001-0.0247719
   6 h     dx  0.0120508 0.0000004-0.0133017-0.1896430-0.0000044 0.1593087
           dy -0.0000011 0.0022527-0.0000004-0.0000047-0.0370386 0.0000055
           dz  0.0213470 0.0000003-0.0143319 0.1606769 0.0000046-0.2622077
   7 h     dx -0.0050080 0.0000001 0.0015739-0.0059199 0.0000003-0.0316273
           dy -0.0000002 0.0084398 0.0000000-0.0000002 0.0027681 0.0000002
           dz  0.0001190 0.0000001 0.0013554 0.0060333-0.0000001 0.0013239
   8 h     dx -0.0037387 0.0000000-0.0033734-0.0000104 0.0000000-0.0008869
           dy  0.0000000 0.0084702 0.0000000 0.0000001-0.0009439 0.0000000
           dz -0.0018268-0.0000002 0.0002634-0.0009562 0.0000000 0.0003552
   9 c     dx -0.0069917 0.0000000-0.0002776 0.0073578 0.0000004 0.0062757
           dy -0.0000008-0.0009911-0.0000002 0.0000004 0.0070082 0.0000002
           dz  0.0017462 0.0000000-0.0003218 0.0007984 0.0000006-0.0049870
  10 c     dx  0.0022511 0.0000001 0.0009253-0.0033987 0.0000001-0.0009915
           dy  0.0000001-0.0000509 0.0000002-0.0000004-0.0000451-0.0000005
           dz -0.0022561 0.0000000 0.0001845 0.0015656-0.0000001 0.0020757
  11 h     dx -0.0000334 0.0000000 0.0000132 0.0000364 0.0000001-0.0001364
           dy  0.0000000-0.0000825 0.0000003-0.0000003 0.0002317-0.0000002
           dz -0.0001112 0.0000000-0.0000693 0.0000301 0.0000000-0.0001774
  12 h     dx  0.0001808 0.0000001 0.0000553 0.0001750 0.0000000 0.0002132
           dy  0.0000004 0.0001011-0.0000001-0.0000002-0.0000264-0.0000002
           dz  0.0000866 0.0000000 0.0001971-0.0000489-0.0000002-0.0000902
  13 h     dx  0.0001189 0.0000000 0.0001572-0.0001952 0.0000001 0.0004417
           dy  0.0000001 0.0001614-0.0000002 0.0000001-0.0008994 0.0000005
           dz -0.0000727 0.0000001 0.0000560 0.0000585-0.0000003-0.0002729
  14 c     dx -0.2276337-0.0000005-0.0259300-0.0261851-0.0000030-0.0225391
           dy -0.0000103-0.0585622-0.0000093-0.0000003 0.0021747 0.0000010
           dz -0.0566995-0.0000096-0.1178071-0.0316991 0.0000002 0.0010964
  15 h     dx -0.0067334-0.0000072-0.0307230-0.0051124-0.0000006 0.0018106
           dy  0.0000050 0.0018781 0.0000009-0.0000004 0.0026395-0.0000006
           dz  0.0033861-0.0000008-0.0028739 0.0001277-0.0000009 0.0007998
  16 c     dx -0.0492544 0.0000052 0.0197696 0.0043973 0.0000013 0.0068697
           dy  0.0000028 0.0045146 0.0000020-0.0000002 0.0004514-0.0000005
           dz  0.0144239 0.0000036 0.0167215-0.0055552-0.0000011-0.0052664
  17 h     dx  0.0016118-0.0000004-0.0013956-0.0012641 0.0000003 0.0013867
           dy  0.0000001-0.0076206 0.0000028 0.0000006 0.0001684-0.0000004
           dz -0.0014861 0.0000024 0.0004448-0.0009677 0.0000003 0.0005743
  18 h     dx  0.0001354 0.0000006 0.0027516 0.0004346-0.0000001 0.0002228
           dy  0.0000000 0.0122274-0.0000046-0.0000006-0.0004301-0.0000001
           dz  0.0012885-0.0000041-0.0032238-0.0001426 0.0000002-0.0005583
  19 c     dx -0.1962084-0.0000020 0.0611503 0.0609407 0.0000001 0.0427551
           dy -0.0000027-0.0609741-0.0000026 0.0000010 0.0055215 0.0000008
           dz  0.1298075-0.0000014-0.2530394-0.0017623 0.0000004-0.0547898
  20 h     dx  0.0092368 0.0000002 0.0223159-0.0035152-0.0000001 0.0023976
           dy -0.0000004 0.0019322 0.0000002-0.0000001 0.0068697 0.0000001
           dz -0.0128976-0.0000004-0.0142852 0.0039916-0.0000001-0.0013549

   ATOM              3 c                           4 c 
                  dx        dy        dz        dx        dy        dz
   3 c     dx  0.7329564
           dy -0.0000030 0.1295547
           dz  0.0520765-0.0000056 0.7815401
   4 c     dx -0.1962086 0.0000027 0.1298075 0.6711037
           dy  0.0000020-0.0609741 0.0000014-0.0000030 0.1465948
           dz  0.0611503 0.0000026-0.2530395 0.0029801-0.0000096 0.6963249
   5 c     dx  0.0609407-0.0000010-0.0017623-0.1418859-0.0000007-0.0242267
           dy -0.0000001 0.0055215-0.0000004-0.0000026-0.0618208-0.0000021
           dz  0.0427552-0.0000008-0.0547896-0.0891605 0.0000001-0.3074050
   6 h     dx -0.0132941-0.0000002 0.0272179-0.0037387 0.0000000-0.0033734
           dy  0.0000005 0.0031009 0.0000000 0.0000000 0.0084701 0.0000000
           dz -0.0107357-0.0000001 0.0082241-0.0018269 0.0000002 0.0002635
   7 h     dx -0.1009545 0.0000014-0.1058778 0.0092368-0.0000002 0.0223160
           dy  0.0000015-0.0365481 0.0000042 0.0000004 0.0019322-0.0000002
           dz -0.1059948 0.0000040-0.3495018-0.0128975 0.0000004-0.0142854
   8 h     dx -0.0014467 0.0000001-0.0025268 0.0120507-0.0000004-0.0133017
           dy -0.0000002 0.0072273 0.0000002 0.0000011 0.0022528 0.0000004
           dz -0.0040846 0.0000000-0.0034426 0.0213469-0.0000003-0.0143319
   9 c     dx -0.0448392-0.0000019 0.0078150-0.2276337 0.0000005-0.0259300
           dy -0.0000014 0.0033985 0.0000007 0.0000103-0.0585622 0.0000093
           dz  0.0304442 0.0000004 0.0057863-0.0566995 0.0000096-0.1178070
  10 c     dx  0.0036016 0.0000008-0.0072949-0.0492544-0.0000052 0.0197695
           dy  0.0000018 0.0015982-0.0000002-0.0000028 0.0045146-0.0000020
           dz -0.0073260-0.0000008 0.0013036 0.0144239-0.0000036 0.0167215
  11 h     dx  0.0000023 0.0000001-0.0000730 0.0016118 0.0000004-0.0013955
           dy  0.0000007-0.0000204 0.0000000-0.0000001-0.0076206-0.0000028
           dz -0.0000983 0.0000000-0.0001258-0.0014861-0.0000024 0.0004448
  12 h     dx  0.0015666-0.0000002-0.0023882-0.0067334 0.0000072-0.0307230
           dy  0.0000000-0.0009609-0.0000006-0.0000050 0.0018781-0.0000009
           dz  0.0024800-0.0000006 0.0015036 0.0033861 0.0000008-0.0028738
  13 h     dx -0.0004302-0.0000002-0.0005124 0.0001355-0.0000006 0.0027516
           dy -0.0000012 0.0000884-0.0000004 0.0000000 0.0122274 0.0000046
           dz  0.0008800-0.0000001 0.0008002 0.0012885 0.0000041-0.0032238
  14 c     dx  0.0113217-0.0000010-0.0017863-0.0069917 0.0000000-0.0002776
           dy -0.0000008 0.0064324-0.0000003 0.0000008-0.0009911 0.0000002
           dz -0.0010984 0.0000011-0.0060575 0.0017462 0.0000000-0.0003218
  15 h     dx  0.0002419 0.0000005-0.0017112 0.0001807-0.0000001 0.0000553
           dy  0.0000009 0.0000540-0.0000002-0.0000004 0.0001011 0.0000001
           dz  0.0001587 0.0000000-0.0002053 0.0000866 0.0000000 0.0001971
  16 c     dx -0.0021805-0.0000005 0.0015111 0.0022510-0.0000001 0.0009253
           dy  0.0000000-0.0004329-0.0000003-0.0000001-0.0000509-0.0000002
           dz  0.0034212-0.0000007-0.0007866-0.0022561 0.0000000 0.0001845
  17 h     dx  0.0001919 0.0000000-0.0002779-0.0000334 0.0000000 0.0000131
           dy -0.0000003 0.0001423 0.0000004 0.0000000-0.0000825-0.0000003
           dz -0.0000317-0.0000001 0.0003822-0.0001112 0.0000000-0.0000693
  18 h     dx  0.0000099 0.0000000-0.0002354 0.0001189 0.0000000 0.0001572
           dy  0.0000002-0.0003206 0.0000000-0.0000001 0.0001614 0.0000002
           dz  0.0000008 0.0000001 0.0002156-0.0000727-0.0000001 0.0000560
  19 c     dx -0.0606657 0.0000003 0.0214942-0.0191054 0.0000010-0.0921605
           dy -0.0000003-0.0063038-0.0000001-0.0000006 0.0058411 0.0000007
           dz  0.0214942 0.0000001-0.0059986-0.0345085-0.0000005 0.0153942
  20 h     dx -0.0005211 0.0000000 0.0005577-0.0050079-0.0000001 0.0015739
           dy  0.0000000-0.0009062 0.0000001 0.0000002 0.0084398 0.0000000
           dz  0.0007490 0.0000000 0.0009109 0.0001190-0.0000001 0.0013554

   ATOM              5 c                           6 h 
                  dx        dy        dz        dx        dy        dz
   5 c     dx  0.7667770
           dy -0.0000035 0.1295386
           dz -0.0590269 0.0000065 0.7477764
   6 h     dx -0.0000103 0.0000000-0.0008870 0.1964645
           dy -0.0000001-0.0009439 0.0000000 0.0000036 0.0257593
           dz -0.0009562 0.0000000 0.0003552-0.1666265-0.0000050 0.2681445
   7 h     dx -0.0035151 0.0000001 0.0023976 0.0017538 0.0000000-0.0000656
           dy  0.0000001 0.0068697-0.0000001 0.0000000-0.0048217-0.0000001
           dz  0.0039916 0.0000001-0.0013549 0.0002212-0.0000001 0.0011597
   8 h     dx -0.1896429 0.0000044 0.1593086-0.0000025 0.0000000 0.0002372
           dy  0.0000047-0.0370386-0.0000055 0.0000000-0.0011528 0.0000000
           dz  0.1606769-0.0000046-0.2622076 0.0002371 0.0000000-0.0000446
   9 c     dx -0.0261851 0.0000030-0.0225391-0.0003246 0.0000001-0.0002169
           dy  0.0000003 0.0021747-0.0000010-0.0000001 0.0000724 0.0000000
           dz -0.0316991-0.0000002 0.0010964 0.0013700 0.0000000 0.0004779
  10 c     dx  0.0043973-0.0000013 0.0068697-0.0003534-0.0000001-0.0001303
           dy  0.0000002 0.0004514 0.0000005 0.0000001-0.0001251 0.0000000
           dz -0.0055552 0.0000011-0.0052664-0.0003140 0.0000000-0.0000731
  11 h     dx -0.0012641-0.0000003 0.0013867 0.0000012 0.0000000 0.0000027
           dy -0.0000006 0.0001684 0.0000004 0.0000000 0.0000006 0.0000000
           dz -0.0009677-0.0000003 0.0005744-0.0000022 0.0000000-0.0000038
  12 h     dx -0.0051124 0.0000006 0.0018106-0.0000022 0.0000000 0.0000133
           dy  0.0000004 0.0026395 0.0000006 0.0000000 0.0000176 0.0000000
           dz  0.0001277 0.0000009 0.0007998 0.0000252 0.0000000 0.0000071
  13 h     dx  0.0004346 0.0000001 0.0002229-0.0000715 0.0000000-0.0000364
           dy  0.0000006-0.0004301 0.0000001-0.0000001 0.0000080 0.0000000
           dz -0.0001426-0.0000002-0.0005583 0.0001163 0.0000000 0.0000380
  14 c     dx  0.0073579-0.0000004 0.0062757-0.0000551 0.0000009 0.0017500
           dy -0.0000004 0.0070082-0.0000002 0.0000002-0.0035962-0.0000001
           dz  0.0007984-0.0000006-0.0049870 0.0010346-0.0000004 0.0011946
  15 h     dx  0.0001750 0.0000000 0.0002132-0.0000081-0.0000001-0.0000200
           dy  0.0000002-0.0000263 0.0000002 0.0000000-0.0000974 0.0000000
           dz -0.0000489 0.0000002-0.0000902 0.0000459 0.0000000 0.0001088
  16 c     dx -0.0033987-0.0000001-0.0009915-0.0008926 0.0000003 0.0004225
           dy  0.0000004-0.0000451 0.0000005-0.0000002 0.0002054-0.0000002
           dz  0.0015655 0.0000001 0.0020758-0.0020478 0.0000007 0.0000698
  17 h     dx  0.0000364-0.0000001-0.0001364-0.0011425 0.0000005-0.0009095
           dy  0.0000003 0.0002317 0.0000002 0.0000006 0.0003063 0.0000003
           dz  0.0000301 0.0000000-0.0001774-0.0000884 0.0000000 0.0005544
  18 h     dx -0.0001952-0.0000001 0.0004417 0.0001224 0.0000000 0.0000328
           dy -0.0000001-0.0008994-0.0000005-0.0000001 0.0001327 0.0000001
           dz  0.0000585 0.0000003-0.0002729 0.0002694-0.0000002 0.0003376
  19 c     dx -0.3711867-0.0000006 0.0059200-0.0014466 0.0000002-0.0040846
           dy -0.0000014-0.0564925-0.0000013-0.0000001 0.0072273 0.0000000
           dz -0.0815255-0.0000004-0.1421132-0.0025268-0.0000002-0.0034426
  20 h     dx -0.0059199-0.0000003-0.0316273 0.0005925 0.0000000 0.0011266
           dy  0.0000002 0.0027681-0.0000002 0.0000001 0.0002222 0.0000000
           dz  0.0060333 0.0000001 0.0013238-0.0006783 0.0000000-0.0008314

   ATOM              7 h                           8 h 
                  dx        dy        dz        dx        dy        dz
   7 h     dx  0.1029595
           dy -0.0000014 0.0263597
           dz  0.1101464-0.0000042 0.3596069
   8 h     dx  0.0005925-0.0000001-0.0006783 0.1964644
           dy  0.0000000 0.0002222 0.0000000-0.0000036 0.0257592
           dz  0.0011266 0.0000000-0.0008314-0.1666266 0.0000050 0.2681445
   9 c     dx  0.0015210-0.0000003-0.0021091-0.0000552-0.0000009 0.0017500
           dy -0.0000004-0.0035717 0.0000000-0.0000002-0.0035962 0.0000001
           dz  0.0021452-0.0000001 0.0014693 0.0010346 0.0000004 0.0011946
  10 c     dx -0.0000568-0.0000002-0.0000578-0.0008926-0.0000003 0.0004224
           dy  0.0000001 0.0000771-0.0000001 0.0000002 0.0002054 0.0000002
           dz -0.0003180 0.0000000 0.0001936-0.0020478-0.0000007 0.0000698
  11 h     dx  0.0000905 0.0000000-0.0000795-0.0011424-0.0000005-0.0009095
           dy  0.0000001-0.0000705 0.0000000-0.0000006 0.0003063-0.0000003
           dz -0.0000259 0.0000000-0.0000262-0.0000884 0.0000000 0.0005544
  12 h     dx -0.0000214 0.0000000 0.0005785-0.0000080 0.0000001-0.0000200
           dy  0.0000000-0.0000481-0.0000001 0.0000000-0.0000974 0.0000000
           dz -0.0005476 0.0000002 0.0000657 0.0000459 0.0000000 0.0001088
  13 h     dx -0.0000233 0.0000000 0.0000867 0.0001224 0.0000000 0.0000328
           dy  0.0000000 0.0003150 0.0000000 0.0000001 0.0001327-0.0000001
           dz  0.0000023 0.0000001 0.0000325 0.0002694 0.0000002 0.0003376
  14 c     dx  0.0002293 0.0000002 0.0000764-0.0003246-0.0000001-0.0002169
           dy -0.0000001 0.0002225 0.0000000 0.0000001 0.0000724 0.0000000
           dz -0.0015699 0.0000000 0.0000344 0.0013700 0.0000000 0.0004779
  15 h     dx -0.0004845 0.0000001 0.0000113-0.0000021 0.0000000 0.0000132
           dy  0.0000000-0.0002540 0.0000000 0.0000000 0.0000176 0.0000000
           dz -0.0000581 0.0000001 0.0000314 0.0000252 0.0000000 0.0000071
  16 c     dx  0.0000546-0.0000001-0.0000048-0.0003534 0.0000001-0.0001303
           dy  0.0000000 0.0000312 0.0000000-0.0000001-0.0001251 0.0000000
           dz -0.0000269 0.0000000-0.0000071-0.0003140 0.0000000-0.0000731
  17 h     dx -0.0000348 0.0000000-0.0000218 0.0000012 0.0000000 0.0000027
           dy  0.0000000 0.0000124 0.0000000 0.0000000 0.0000006 0.0000000
           dz -0.0000203 0.0000000 0.0000045-0.0000022 0.0000000-0.0000038
  18 h     dx -0.0000234 0.0000000 0.0000047-0.0000715 0.0000000-0.0000364
           dy  0.0000000 0.0000010 0.0000000 0.0000001 0.0000080 0.0000000
           dz  0.0000463 0.0000000 0.0000019 0.0001163 0.0000000 0.0000380
  19 c     dx -0.0005211 0.0000000 0.0007490-0.0132940-0.0000005-0.0107358
           dy  0.0000000-0.0009062 0.0000000 0.0000002 0.0031010 0.0000001
           dz  0.0005577-0.0000001 0.0009110 0.0272179 0.0000000 0.0082240
  20 h     dx  0.0001247 0.0000000-0.0001745 0.0017537 0.0000000-0.0000655
           dy  0.0000000-0.0010305 0.0000000 0.0000000-0.0048217 0.0000001
           dz -0.0001745 0.0000000-0.0001834 0.0002212 0.0000001 0.0011596

   ATOM              9 c                          10 c 
                  dx        dy        dz        dx        dy        dz
   9 c     dx  0.7303524
           dy  0.0000429 0.1271962
           dz -0.1273795-0.0001785 0.8334174
  10 c     dx -0.3656342-0.0000671 0.2374284 0.8443910
           dy -0.0000632-0.0464107 0.0000827 0.0000310 0.1018925
           dz  0.2144578 0.0000805-0.3440803-0.0932771-0.0002045 0.8252470
  11 h     dx  0.0107202-0.0000082 0.0284981-0.0756719 0.0000165-0.0568729
           dy  0.0000046 0.0038907 0.0000047 0.0000146-0.0348928 0.0001020
           dz -0.0076040 0.0000047-0.0132057-0.0557875 0.0001004-0.3837770
  12 h     dx -0.0771711 0.0000200-0.0724374 0.0075220-0.0000085 0.0306480
           dy  0.0000226-0.0408110 0.0000845 0.0000013 0.0046373 0.0000071
           dz -0.0700776 0.0000843-0.3661949-0.0090719 0.0000054-0.0151717
  13 h     dx -0.0153450 0.0000027-0.0120272-0.3637638 0.0000249-0.0974005
           dy -0.0000082 0.0043824-0.0000028 0.0000256-0.0315290 0.0000182
           dz  0.0271539-0.0000006 0.0092168-0.1001544 0.0000176-0.0968886
  14 c     dx  0.0040786 0.0000007-0.0010806-0.0013835 0.0000000 0.0014590
           dy -0.0000007-0.0010038-0.0000003 0.0000002 0.0001113 0.0000001
           dz -0.0010807 0.0000003-0.0000969 0.0005216 0.0000000-0.0000995
  15 h     dx  0.0000160 0.0000000 0.0001420-0.0000547 0.0000000-0.0000024
           dy  0.0000002-0.0000035-0.0000001-0.0000001-0.0000050 0.0000000
           dz -0.0000055 0.0000000 0.0000332-0.0000101 0.0000000-0.0000029
  16 c     dx -0.0013835-0.0000002 0.0005215 0.0003758 0.0000000-0.0006187
           dy  0.0000000 0.0001113 0.0000000 0.0000000-0.0000019 0.0000000
           dz  0.0014590-0.0000001-0.0000995-0.0006186 0.0000000 0.0003894
  17 h     dx  0.0000103 0.0000000-0.0000311 0.0000083 0.0000000-0.0000023
           dy  0.0000000 0.0000684 0.0000001 0.0000000-0.0000070 0.0000000
           dz  0.0000594-0.0000001 0.0001887-0.0000910 0.0000000-0.0000668
  18 h     dx -0.0000440 0.0000000-0.0001058 0.0000427 0.0000000 0.0000424
           dy  0.0000000-0.0000077 0.0000000 0.0000000-0.0000185 0.0000000
           dz -0.0000408 0.0000000-0.0000643 0.0000420 0.0000001 0.0000349
  19 c     dx  0.0113217 0.0000008-0.0010984-0.0021805 0.0000000 0.0034213
           dy  0.0000010 0.0064324-0.0000011 0.0000005-0.0004329 0.0000007
           dz -0.0017864 0.0000003-0.0060576 0.0015111 0.0000003-0.0007866
  20 h     dx  0.0002292 0.0000001-0.0015699 0.0000546 0.0000000-0.0000269
           dy -0.0000002 0.0002225 0.0000000 0.0000001 0.0000311 0.0000000
           dz  0.0000764 0.0000000 0.0000343-0.0000048 0.0000000-0.0000071

   ATOM             11 h                          12 h 
                  dx        dy        dz        dx        dy        dz
  11 h     dx  0.0673014
           dy -0.0000155 0.0229438
           dz  0.0563819-0.0001072 0.3970464
  12 h     dx -0.0035987-0.0000010 0.0022227 0.0819048
           dy -0.0000007 0.0132034 0.0000038-0.0000180 0.0281974
           dz  0.0020640 0.0000032-0.0003738 0.0716056-0.0000914 0.3802977
  13 h     dx  0.0017699-0.0000023 0.0076067 0.0015712 0.0000001-0.0001639
           dy  0.0000080 0.0017252 0.0000009 0.0000003-0.0085277-0.0000026
           dz -0.0285423 0.0000004-0.0013423-0.0000242-0.0000030 0.0018741
  14 c     dx  0.0000103 0.0000000 0.0000594 0.0000160-0.0000002-0.0000055
           dy  0.0000000 0.0000684 0.0000001 0.0000000-0.0000035 0.0000000
           dz -0.0000310-0.0000001 0.0001886 0.0001420 0.0000001 0.0000332
  15 h     dx -0.0000038 0.0000000-0.0000174 0.0000045 0.0000000 0.0000040
           dy  0.0000000 0.0000042 0.0000000 0.0000000-0.0000006 0.0000000
           dz  0.0000017 0.0000000-0.0000018 0.0000040 0.0000000-0.0000078
  16 c     dx  0.0000083 0.0000000-0.0000910-0.0000547 0.0000001-0.0000101
           dy  0.0000000-0.0000070 0.0000000 0.0000000-0.0000050 0.0000000
           dz -0.0000023 0.0000000-0.0000669-0.0000023 0.0000000-0.0000029
  17 h     dx -0.0000020 0.0000000-0.0000045-0.0000038 0.0000000 0.0000017
           dy  0.0000000 0.0000206 0.0000000 0.0000000 0.0000042 0.0000000
           dz -0.0000045 0.0000000-0.0000599-0.0000174 0.0000000-0.0000018
  18 h     dx  0.0000069 0.0000000 0.0000356 0.0000073 0.0000000-0.0000019
           dy  0.0000000-0.0000242 0.0000000 0.0000000 0.0000019 0.0000000
           dz -0.0000014 0.0000000 0.0000344 0.0000194 0.0000000 0.0000035
  19 c     dx  0.0001919 0.0000003-0.0000317 0.0002419-0.0000009 0.0001587
           dy  0.0000000 0.0001423 0.0000001-0.0000005 0.0000540 0.0000000
           dz -0.0002779-0.0000004 0.0003823-0.0017112 0.0000002-0.0002053
  20 h     dx -0.0000348 0.0000000-0.0000203-0.0004845 0.0000000-0.0000581
           dy  0.0000000 0.0000124 0.0000000-0.0000001-0.0002540-0.0000001
           dz -0.0000218 0.0000000 0.0000045 0.0000113 0.0000000 0.0000314

   ATOM             13 h                          14 c 
                  dx        dy        dz        dx        dy        dz
  13 h     dx  0.3757042
           dy -0.0000250 0.0226799
           dz  0.0991212-0.0000183 0.0897196
  14 c     dx -0.0000440 0.0000000-0.0000408 0.7303521
           dy  0.0000000-0.0000077 0.0000000-0.0000429 0.1271963
           dz -0.0001058 0.0000000-0.0000643-0.1273794 0.0001785 0.8334174
  15 h     dx  0.0000073 0.0000000 0.0000194-0.0771710-0.0000200-0.0724374
           dy  0.0000000 0.0000019 0.0000000-0.0000226-0.0408110-0.0000845
           dz -0.0000019 0.0000000 0.0000034-0.0700776-0.0000843-0.3661949
  16 c     dx  0.0000427 0.0000000 0.0000420-0.3656341 0.0000671 0.2374284
           dy  0.0000000-0.0000185-0.0000001 0.0000632-0.0464107-0.0000827
           dz  0.0000425 0.0000000 0.0000349 0.2144577-0.0000805-0.3440803
  17 h     dx  0.0000069 0.0000000-0.0000014 0.0107203 0.0000082 0.0284980
           dy  0.0000000-0.0000242 0.0000000-0.0000046 0.0038907-0.0000047
           dz  0.0000356 0.0000000 0.0000345-0.0076040-0.0000047-0.0132057
  18 h     dx -0.0000271 0.0000000-0.0000200-0.0153450-0.0000027-0.0120273
           dy  0.0000000 0.0000339 0.0000000 0.0000082 0.0043824 0.0000028
           dz -0.0000200 0.0000000-0.0000148 0.0271539 0.0000006 0.0092168
  19 c     dx  0.0000099-0.0000002 0.0000008-0.0448392 0.0000014 0.0304440
           dy  0.0000000-0.0003206-0.0000001 0.0000019 0.0033985-0.0000004
           dz -0.0002354 0.0000000 0.0002156 0.0078149-0.0000007 0.0057864
  20 h     dx -0.0000234 0.0000000 0.0000463 0.0015210 0.0000004 0.0021452
           dy  0.0000000 0.0000010 0.0000000 0.0000003-0.0035718 0.0000001
           dz  0.0000047 0.0000000 0.0000019-0.0021091 0.0000000 0.0014692

   ATOM             15 h                          16 c 
                  dx        dy        dz        dx        dy        dz
  15 h     dx  0.0819049
           dy  0.0000180 0.0281974
           dz  0.0716056 0.0000914 0.3802978
  16 c     dx  0.0075220-0.0000013-0.0090719 0.8443907
           dy  0.0000085 0.0046372-0.0000054-0.0000310 0.1018925
           dz  0.0306480-0.0000071-0.0151717-0.0932771 0.0002045 0.8252470
  17 h     dx -0.0035987 0.0000007 0.0020640-0.0756719-0.0000165-0.0568729
           dy  0.0000010 0.0132034-0.0000032-0.0000146-0.0348928-0.0001020
           dz  0.0022227-0.0000038-0.0003738-0.0557875-0.0001004-0.3837770
  18 h     dx  0.0015712-0.0000001-0.0001639-0.3637638-0.0000249-0.0974005
           dy -0.0000003-0.0085277 0.0000026-0.0000256-0.0315289-0.0000182
           dz -0.0000242 0.0000030 0.0018741-0.1001544-0.0000177-0.0968886
  19 c     dx  0.0015665 0.0000000 0.0024800 0.0036018-0.0000018-0.0073260
           dy  0.0000002-0.0009608 0.0000006-0.0000008 0.0015983 0.0000008
           dz -0.0023881 0.0000006 0.0015037-0.0072948 0.0000002 0.0013036
  20 h     dx -0.0000214 0.0000000-0.0005476-0.0000568-0.0000001-0.0003180
           dy  0.0000000-0.0000482-0.0000002 0.0000002 0.0000771 0.0000000
           dz  0.0005785 0.0000001 0.0000657-0.0000578 0.0000001 0.0001936

   ATOM             17 h                          18 h 
                  dx        dy        dz        dx        dy        dz
  17 h     dx  0.0673014
           dy  0.0000155 0.0229438
           dz  0.0563819 0.0001073 0.3970464
  18 h     dx  0.0017699 0.0000023 0.0076067 0.3757042
           dy -0.0000080 0.0017252-0.0000009 0.0000250 0.0226799
           dz -0.0285423-0.0000004-0.0013423 0.0991212 0.0000183 0.0897196
  19 c     dx  0.0000023-0.0000007-0.0000983-0.0004301 0.0000012 0.0008799
           dy -0.0000001-0.0000204 0.0000000 0.0000002 0.0000885 0.0000001
           dz -0.0000729 0.0000000-0.0001258-0.0005124 0.0000004 0.0008002
  20 h     dx  0.0000905-0.0000001-0.0000259-0.0000233 0.0000000 0.0000023
           dy  0.0000000-0.0000704 0.0000000 0.0000000 0.0003149-0.0000001
           dz -0.0000795 0.0000000-0.0000262 0.0000867 0.0000000 0.0000324

   ATOM             19 c                          20 h 
                  dx        dy        dz        dx        dy        dz
  19 c     dx  0.7329553
           dy  0.0000030 0.1295546
           dz  0.0520766 0.0000056 0.7815396
  20 h     dx -0.1009545-0.0000014-0.1058778 0.1029596
           dy -0.0000015-0.0365481-0.0000042 0.0000014 0.0263599
           dz -0.1059947-0.0000040-0.3495017 0.1101464 0.0000041 0.3596070
 

   *** projected hessian written onto $hessian (projected), file=<control> ***

 dipole moment in principle axis system (a.u.) :
    -0.0000000003    -0.0000179348    -0.0000000056
 norm :  1.793479966963760E-005

 rotational constants b for rotations around axis of inertia
 and optical intensities for (1 <-- 0) transition

   b   :     0.1525980412     0.0197230376     0.0226505875   (cm**(-1))
   b   :        4574.7742         591.2818         679.0475     (MHz)
  int. :     0.0000000000     0.0000000003     0.0000000000     (a.u.)

   x   :     1.0000000000     0.0000000000     0.0000000000
   y   :     0.0000000000     1.0000000000     0.0000000000
   z   :     0.0000000000     0.0000000000     1.0000000000

   ***  normal modes written onto $vibrational normal modes, file=<control>  ***

 keyword $vibrational reduced masses missing in file <control>


   ***  vibrational spectroscopic data written onto$vibrational spectrum   
        file=<control>  ***

          ---------------------------------------------------
          NORMAL MODES and VIBRATIONAL FREQUENCIES (cm**(-1))
          ---------------------------------------------------

 imaginary wave numbers indicate a negative curvature of the energy surface.
 zero frequency modes have no physical meaning except being generators of
 translations and rotations. each vibrational normal mode - given in terms of
 cartesian displacement vectors of all atoms - has been normalized to unity.
 to obtain mass-weigthed normal coordinates in a.u. divide the tabulated
 modes by sqrt(reduced mass * 1822.88853).
 band intensities or cross sections refer to independent non-degenerate normal
 modes, that is, the intensities of degenerate modes have yet to be added.
 dDIP/dQ is the normal mode derivative of the dipole moment.


       mode               1        2        3        4        5        6

     frequency           0.00     0.00     0.00     0.00     0.00     0.00

     symmetry                                                             

        IR                -        -        -        -        -        - 
|dDIP/dQ|   (a.u.)     0.0000   0.0000   0.0000   0.0000   0.0000   0.0000
intensity (km/mol)       0.00     0.00     0.00     0.00     0.00     0.00
intensity (  %   )       0.00     0.00     0.00     0.00     0.00     0.00
 
       RAMAN              -        -        -        -        -        - 
 
  1   c           x   0.11037 -0.14830  0.06872  0.00510  0.02126 -0.04772
                  y  -0.03808  0.07230  0.17419 -0.10989  0.00447 -0.01481
                  z  -0.00648  0.01117 -0.00715  0.00109 -0.23297 -0.08725
  2   c           x   0.09472 -0.12133  0.05144  0.00773  0.01033 -0.13937
                  y   0.11187  0.08954 -0.00262 -0.24876  0.00170 -0.00567
                  z  -0.00029  0.00050 -0.00032  0.00005 -0.22865 -0.05102
  3   c           x   0.09204 -0.11670  0.04847  0.00818  0.00846 -0.15509
                  y   0.20352  0.13896 -0.05527 -0.21283 -0.00071  0.00231
                  z   0.01606 -0.02769  0.01774 -0.00270 -0.21723  0.04476
  4   c           x   0.10480 -0.13870  0.06257  0.00603  0.01737 -0.08035
                  y   0.15037  0.17366  0.06553 -0.03689 -0.00048  0.00157
                  z   0.02706 -0.04664  0.02989 -0.00454 -0.20955  0.10915
  5   c           x   0.12045 -0.16567  0.07985  0.00341  0.02830  0.01130
                  y   0.00043  0.15643  0.24233  0.10198  0.00230 -0.00757
                  z   0.02087 -0.03597  0.02305 -0.00350 -0.21387  0.07292
  6   h           x   0.08458 -0.10385  0.04024  0.00943  0.00325 -0.19874
                  y   0.15667  0.06380 -0.09944 -0.38618  0.00143 -0.00483
                  z  -0.00843  0.01452 -0.00931  0.00141 -0.23433 -0.09865
  7   h           x   0.07983 -0.09566  0.03500  0.01023 -0.00007 -0.22655
                  y   0.31910  0.15146 -0.19267 -0.32232 -0.00284  0.00931
                  z   0.02058 -0.03547  0.02273 -0.00346 -0.21407  0.07121
  8   h           x   0.13060 -0.18315  0.09105  0.00170  0.03538  0.07067
                  y  -0.04437  0.18216  0.33916  0.23940  0.00256 -0.00841
                  z   0.02901 -0.04999  0.03203 -0.00487 -0.20819  0.12055
  9   c           x   0.10127 -0.13260  0.05866  0.00663  0.01490 -0.10106
                  y   0.25261  0.22574  0.00244 -0.00631 -0.00311  0.01029
                  z   0.04432 -0.07638  0.04894 -0.00745 -0.19750  0.21021
 10   c           x   0.11187 -0.15090  0.07039  0.00484  0.02231 -0.03891
                  y   0.22035  0.26298  0.09883  0.15077 -0.00326  0.01083
                  z   0.05621 -0.09691  0.06212 -0.00942 -0.18918  0.27994
 11   h           x   0.12467 -0.17300  0.08455  0.00267  0.03126  0.03613
                  y   0.11057  0.25804  0.23920  0.27627 -0.00137  0.00461
                  z   0.05413 -0.09337  0.05990 -0.00903 -0.19061  0.26793
 12   h           x   0.08858 -0.11070  0.04463  0.00878  0.00603 -0.17545
                  y   0.36522  0.23331 -0.13800 -0.12729 -0.00510  0.01682
                  z   0.04726 -0.08140  0.05212 -0.00797 -0.19547  0.22725
 13   h           x   0.10805 -0.14430  0.06616  0.00548  0.01964 -0.06132
                  y   0.30394  0.30028  0.03972  0.15937 -0.00532  0.01763
                  z   0.06862 -0.11828  0.07581 -0.01151 -0.18052  0.35256
 14   c           x   0.11391 -0.15439  0.07263  0.00451  0.02373 -0.02701
                  y  -0.14032  0.02022  0.23728 -0.14047  0.00710 -0.02353
                  z  -0.02374  0.04091 -0.02622  0.00398 -0.24502 -0.18831
 15   h           x   0.12663 -0.17628  0.08665  0.00239  0.03260  0.04738
                  y  -0.25292  0.01266  0.37771 -0.01949  0.00909 -0.03006
                  z  -0.02662  0.04593 -0.02947  0.00444 -0.24705 -0.20535
 16   c           x   0.10329 -0.13611  0.06091  0.00628  0.01632 -0.08916
                  y  -0.10805 -0.01702  0.14089 -0.29755  0.00726 -0.02407
                  z  -0.03567  0.06144 -0.03934  0.00601 -0.25333 -0.25804
 17   h           x   0.09046 -0.11404  0.04677  0.00842  0.00737 -0.16420
                  y   0.00173 -0.01208  0.00052 -0.42305  0.00536 -0.01785
                  z  -0.03365  0.05790 -0.03703  0.00571 -0.25190 -0.24603
 18   h           x   0.10712 -0.14270  0.06514  0.00564  0.01899 -0.06675
                  y  -0.19164 -0.05432  0.20000 -0.30615  0.00931 -0.03087
                  z  -0.04806  0.08281 -0.05304  0.00809 -0.26199 -0.33066
 19   c           x   0.12314 -0.17030  0.08282  0.00296  0.03017  0.02702
                  y  -0.09122  0.10700  0.29498  0.06606  0.00471 -0.01555
                  z   0.00451 -0.00778  0.00499 -0.00076 -0.22529 -0.02286
 20   h           x   0.13534 -0.19133  0.09630  0.00091  0.03869  0.09848
                  y  -0.20681  0.09450  0.43239  0.17554  0.00683 -0.02255
                  z   0.00000  0.00000  0.00000  0.00000 -0.22844 -0.04931

reduced mass(g/mol)     4.916    5.995    4.572    3.946    6.482    4.639


       mode               7        8        9       10       11       12

     frequency          53.31    88.30   146.84   171.70   251.75   289.44

     symmetry            a        a        a        a        a        a   

        IR               YES      YES      YES      YES      YES      YES
|dDIP/dQ|   (a.u.)     0.0002   0.0000   0.0005   0.0004   0.0000   0.0000
intensity (km/mol)       0.05     0.00     0.39     0.28     0.00     0.00
intensity (  %   )       0.05     0.00     0.40     0.28     0.00     0.00
 
       RAMAN             YES      YES      YES      YES      YES      YES
 
  1   c           x   0.00000  0.00000  0.00000  0.01968  0.04257 -0.00001
                  y  -0.08245  0.08792  0.02676  0.00003  0.00001 -0.17930
                  z   0.00000 -0.00001  0.00001  0.10350 -0.11992  0.00001
  2   c           x   0.00000  0.00001  0.00001  0.01275 -0.06719 -0.00001
                  y  -0.10124  0.13391  0.09212  0.00001  0.00001 -0.09675
                  z   0.00000 -0.00001  0.00001  0.11094 -0.08035  0.00002
  3   c           x   0.00000  0.00000  0.00001  0.02546 -0.09841 -0.00001
                  y  -0.10923  0.04021  0.07654 -0.00003  0.00003  0.11955
                  z   0.00000 -0.00001  0.00000  0.11264  0.06330  0.00002
  4   c           x   0.00000  0.00000  0.00000  0.01968 -0.04257 -0.00001
                  y  -0.08245 -0.08792  0.02676 -0.00003  0.00001  0.17930
                  z   0.00000 -0.00001 -0.00001  0.10350  0.11992  0.00001
  5   c           x   0.00000  0.00001 -0.00001  0.01275  0.06719 -0.00001
                  y  -0.10124 -0.13391  0.09212 -0.00001  0.00001  0.09675
                  z   0.00000 -0.00001 -0.00001  0.11094  0.08035  0.00002
  6   h           x   0.00000  0.00001  0.00001  0.00741 -0.14796  0.00000
                  y  -0.10844  0.25233  0.08067  0.00001 -0.00002 -0.12220
                  z   0.00000  0.00000  0.00001  0.10916 -0.14830  0.00002
  7   h           x   0.00001  0.00000  0.00002  0.02520 -0.18562 -0.00001
                  y  -0.11767  0.08239  0.05686 -0.00004  0.00004  0.18301
                  z   0.00000 -0.00001 -0.00001  0.11358  0.09526  0.00002
  8   h           x   0.00000  0.00001 -0.00001  0.00741  0.14796  0.00000
                  y  -0.10844 -0.25233  0.08068 -0.00001 -0.00002  0.12220
                  z   0.00000  0.00000 -0.00001  0.10916  0.14830  0.00002
  9   c           x   0.00000  0.00001  0.00000  0.05251 -0.04068  0.00000
                  y  -0.01483 -0.13941 -0.18104 -0.00002 -0.00004 -0.05525
                  z  -0.00002 -0.00002 -0.00003 -0.05386  0.05553 -0.00004
 10   c           x  -0.00003 -0.00002  0.00002 -0.10276 -0.19851  0.00002
                  y   0.27500  0.14795  0.00334  0.00001 -0.00001 -0.03027
                  z   0.00002  0.00004  0.00003 -0.23168 -0.11918 -0.00001
 11   h           x  -0.00009 -0.00005  0.00003 -0.29777 -0.41188  0.00004
                  y   0.48181  0.44555  0.36772  0.00003  0.00005  0.32353
                  z   0.00009  0.00013  0.00014 -0.19969 -0.08340  0.00009
 12   h           x   0.00004  0.00002 -0.00001  0.21703  0.08803 -0.00001
                  y  -0.18600 -0.38988 -0.51725 -0.00002 -0.00008 -0.39721
                  z  -0.00007 -0.00009 -0.00012 -0.09176  0.02495 -0.00012
 13   h           x  -0.00002 -0.00001  0.00001 -0.04305 -0.13401  0.00001
                  y   0.32068  0.10210 -0.19910  0.00003 -0.00003 -0.35966
                  z  -0.00001  0.00000 -0.00001 -0.42636 -0.33234 -0.00007
 14   c           x   0.00000  0.00001  0.00000  0.05251  0.04068  0.00000
                  y  -0.01483  0.13940 -0.18104  0.00002 -0.00004  0.05525
                  z   0.00002 -0.00002  0.00003 -0.05386 -0.05553 -0.00004
 15   h           x  -0.00004  0.00002  0.00001  0.21703 -0.08803 -0.00001
                  y  -0.18600  0.38986 -0.51726  0.00002 -0.00008  0.39721
                  z   0.00007 -0.00009  0.00012 -0.09176 -0.02495 -0.00012
 16   c           x   0.00003 -0.00002 -0.00002 -0.10276  0.19851  0.00002
                  y   0.27500 -0.14795  0.00334 -0.00001 -0.00001  0.03027
                  z  -0.00002  0.00004 -0.00003 -0.23167  0.11918 -0.00001
 17   h           x   0.00009 -0.00005 -0.00003 -0.29777  0.41188  0.00004
                  y   0.48181 -0.44554  0.36773 -0.00003  0.00005 -0.32353
                  z  -0.00009  0.00013 -0.00014 -0.19969  0.08340  0.00009
 18   h           x   0.00002 -0.00001 -0.00001 -0.04305  0.13401  0.00001
                  y   0.32068 -0.10211 -0.19910 -0.00003 -0.00003  0.35967
                  z   0.00001  0.00000  0.00001 -0.42635  0.33234 -0.00007
 19   c           x   0.00000  0.00000 -0.00001  0.02546  0.09841 -0.00001
                  y  -0.10923 -0.04020  0.07654  0.00003  0.00003 -0.11955
                  z   0.00000 -0.00001  0.00000  0.11264 -0.06330  0.00002
 20   h           x  -0.00001  0.00000 -0.00002  0.02520  0.18562 -0.00001
                  y  -0.11767 -0.08239  0.05686  0.00004  0.00004 -0.18300
                  z   0.00000 -0.00001  0.00001  0.11358 -0.09526  0.00002

reduced mass(g/mol)     3.315    2.518    2.061    3.358    3.191    2.323


       mode              13       14       15       16       17       18

     frequency         396.93   409.13   450.64   472.11   561.47   633.10

     symmetry            a        a        a        a        a        a   

        IR               YES      YES      YES      YES      YES      YES
|dDIP/dQ|   (a.u.)     0.0000   0.0003   0.0019   0.0010   0.0000   0.0000
intensity (km/mol)       0.00     0.13     6.66     1.76     0.00     0.00
intensity (  %   )       0.00     0.13     6.77     1.79     0.00     0.00
 
       RAMAN             YES      YES      YES      YES      YES      YES
 
  1   c           x  -0.13509 -0.00002 -0.00004 -0.05857 -0.11663  0.00000
                  y   0.00005 -0.02039 -0.19747  0.00004  0.00006 -0.03905
                  z  -0.13639 -0.00003  0.00000  0.04304  0.06468  0.00000
  2   c           x  -0.06267 -0.00001  0.00000 -0.10165  0.02025  0.00001
                  y  -0.00007  0.21932  0.05913  0.00004  0.00000  0.11570
                  z  -0.15508 -0.00003 -0.00002  0.07731  0.02424 -0.00001
  3   c           x  -0.05113 -0.00001  0.00001 -0.08370  0.06298  0.00000
                  y   0.00001 -0.21190  0.09403 -0.00003 -0.00001 -0.12077
                  z   0.00509  0.00000 -0.00002  0.07593 -0.13491 -0.00001
  4   c           x   0.13509  0.00002  0.00004 -0.05857  0.11663  0.00000
                  y   0.00005 -0.02039 -0.19747 -0.00004  0.00006  0.03905
                  z   0.13639  0.00003  0.00000  0.04304 -0.06468  0.00000
  5   c           x   0.06267  0.00001  0.00000 -0.10165 -0.02025  0.00001
                  y  -0.00007  0.21932  0.05913 -0.00004  0.00000 -0.11569
                  z   0.15508  0.00003  0.00002  0.07731 -0.02424 -0.00001
  6   h           x  -0.07021 -0.00002  0.00003 -0.10082  0.18470  0.00002
                  y  -0.00016  0.49021  0.28295  0.00004 -0.00011  0.18773
                  z  -0.15901 -0.00002  0.00001  0.07915  0.15841  0.00000
  7   h           x  -0.25380 -0.00005 -0.00002 -0.09608  0.08543  0.00000
                  y   0.00001 -0.39983  0.34169 -0.00005 -0.00013 -0.15454
                  z   0.08337  0.00001  0.00000  0.08357 -0.14421 -0.00001
  8   h           x   0.07021  0.00002 -0.00003 -0.10082 -0.18470  0.00002
                  y  -0.00016  0.49021  0.28295 -0.00004 -0.00011 -0.18773
                  z   0.15901  0.00002 -0.00001  0.07916 -0.15841  0.00000
  9   c           x   0.24090  0.00003  0.00005  0.02430  0.09350 -0.00001
                  y   0.00002  0.00589 -0.06484  0.00003 -0.00002  0.14042
                  z  -0.00633  0.00000  0.00002 -0.17534  0.17049  0.00004
 10   c           x   0.19946  0.00002  0.00001  0.18163 -0.05642 -0.00001
                  y   0.00001 -0.00216  0.02812  0.00002 -0.00001 -0.02389
                  z  -0.08526 -0.00002  0.00000 -0.03407  0.02259  0.00000
 11   h           x   0.15021  0.00001 -0.00007  0.49758 -0.42734 -0.00001
                  y   0.00015 -0.05685 -0.24431  0.00003 -0.00001  0.30220
                  z  -0.07930 -0.00003 -0.00007 -0.08746  0.08305  0.00009
 12   h           x   0.35580  0.00005  0.00009  0.05735  0.04515 -0.00002
                  y  -0.00011  0.02791  0.20313  0.00004 -0.00006 -0.18676
                  z  -0.02844  0.00000  0.00009 -0.17935  0.18112 -0.00005
 13   h           x   0.22060  0.00002  0.00003  0.09455  0.04772  0.00000
                  y  -0.00014  0.04857  0.38198 -0.00004  0.00003 -0.51467
                  z  -0.14458 -0.00002  0.00002  0.26054 -0.32188 -0.00014
 14   c           x  -0.24090 -0.00003 -0.00005  0.02430 -0.09350 -0.00001
                  y   0.00002  0.00589 -0.06484 -0.00003 -0.00002 -0.14042
                  z   0.00633  0.00000 -0.00002 -0.17534 -0.17049  0.00004
 15   h           x  -0.35580 -0.00005 -0.00009  0.05735 -0.04515 -0.00002
                  y  -0.00011  0.02791  0.20313 -0.00004 -0.00006  0.18676
                  z   0.02844  0.00000 -0.00009 -0.17935 -0.18112 -0.00005
 16   c           x  -0.19946 -0.00002 -0.00001  0.18163  0.05642 -0.00001
                  y   0.00001 -0.00216  0.02812 -0.00002 -0.00001  0.02389
                  z   0.08526  0.00002  0.00000 -0.03407 -0.02259  0.00000
 17   h           x  -0.15021 -0.00001  0.00007  0.49758  0.42734 -0.00001
                  y   0.00015 -0.05685 -0.24430 -0.00003 -0.00001 -0.30220
                  z   0.07930  0.00003  0.00007 -0.08746 -0.08305  0.00009
 18   h           x  -0.22060 -0.00002 -0.00003  0.09455 -0.04772  0.00000
                  y  -0.00014  0.04857  0.38198  0.00004  0.00003  0.51467
                  z   0.14458  0.00002 -0.00002  0.26054  0.32188 -0.00014
 19   c           x   0.05113  0.00001 -0.00001 -0.08370 -0.06298  0.00000
                  y   0.00001 -0.21190  0.09403  0.00003 -0.00001  0.12077
                  z  -0.00509  0.00000  0.00002  0.07593  0.13491 -0.00001
 20   h           x   0.25380  0.00005  0.00002 -0.09608 -0.08543  0.00000
                  y   0.00001 -0.39983  0.34169  0.00005 -0.00013  0.15453
                  z  -0.08337 -0.00001  0.00000  0.08357  0.14421 -0.00001

reduced mass(g/mol)     4.806    3.065    2.248    3.205    2.822    2.104


       mode              19       20       21       22       23       24

     frequency         654.41   681.46   719.56   780.18   841.47   859.88

     symmetry            a        a        a        a        a        a   

        IR               YES      YES      YES      YES      YES      YES
|dDIP/dQ|   (a.u.)     0.0000   0.0006   0.0015   0.0000   0.0000   0.0000
intensity (km/mol)       0.00     0.58     3.75     0.00     0.00     0.00
intensity (  %   )       0.00     0.59     3.81     0.00     0.00     0.00
 
       RAMAN             YES      YES      YES      YES      YES      YES
 
  1   c           x   0.00166  0.00000  0.02046 -0.00001 -0.07214  0.00000
                  y  -0.00006  0.08492  0.00002  0.26860  0.00003 -0.00026
                  z   0.10407  0.00000  0.00259  0.00000 -0.01495  0.00000
  2   c           x  -0.32279 -0.00004 -0.13233  0.00002  0.07161  0.00000
                  y   0.00000  0.02062 -0.00001 -0.11120 -0.00003  0.07758
                  z   0.16267  0.00000 -0.02343 -0.00001 -0.24611  0.00000
  3   c           x  -0.25988 -0.00003 -0.13567  0.00001 -0.00502  0.00000
                  y   0.00000  0.01592  0.00001  0.11122 -0.00002  0.07281
                  z  -0.23033 -0.00001 -0.06800  0.00000 -0.24494  0.00000
  4   c           x  -0.00166  0.00000  0.02046 -0.00001  0.07214  0.00000
                  y  -0.00006  0.08492 -0.00002 -0.26859  0.00003  0.00024
                  z  -0.10407  0.00000  0.00259  0.00000  0.01495  0.00000
  5   c           x   0.32279  0.00004 -0.13233  0.00002 -0.07161  0.00000
                  y   0.00000  0.02062  0.00001  0.11120 -0.00003 -0.07758
                  z  -0.16267  0.00000 -0.02343 -0.00001  0.24611  0.00000
  6   h           x  -0.25207 -0.00004 -0.20277  0.00003  0.21209  0.00001
                  y   0.00014 -0.30644 -0.00003 -0.25493  0.00014 -0.50098
                  z   0.22010 -0.00001 -0.08532  0.00000 -0.15279 -0.00001
  7   h           x  -0.14900 -0.00004 -0.22708  0.00002 -0.20583  0.00000
                  y   0.00016 -0.31293  0.00002  0.27444  0.00015 -0.48671
                  z  -0.27246 -0.00002 -0.03362  0.00000 -0.18604 -0.00001
  8   h           x   0.25207  0.00004 -0.20277  0.00003 -0.21209  0.00001
                  y   0.00014 -0.30644  0.00003  0.25493  0.00014  0.50093
                  z  -0.22010  0.00001 -0.08532  0.00000  0.15279 -0.00001
  9   c           x  -0.01143  0.00000  0.18111 -0.00002 -0.10810  0.00000
                  y   0.00005 -0.11687  0.00000  0.12860 -0.00001 -0.00011
                  z  -0.05693 -0.00004  0.12613  0.00002 -0.07618  0.00000
 10   c           x   0.02396  0.00001  0.09222 -0.00001 -0.07729  0.00000
                  y   0.00000  0.01735  0.00000 -0.01301  0.00000  0.00193
                  z  -0.04076  0.00000 -0.01126 -0.00001  0.00164  0.00000
 11   h           x   0.12435  0.00003 -0.26447  0.00007  0.21388  0.00000
                  y   0.00014 -0.25660  0.00000  0.21932  0.00001  0.01648
                  z  -0.05682 -0.00008  0.04316  0.00005 -0.04319  0.00000
 12   h           x   0.00103  0.00000  0.18171  0.00002 -0.10862  0.00000
                  y  -0.00008  0.18163 -0.00007 -0.16778  0.00003  0.00096
                  z  -0.05977  0.00004  0.13346 -0.00007 -0.08358  0.00000
 13   h           x  -0.00019  0.00000  0.20516 -0.00003 -0.17793  0.00000
                  y  -0.00019  0.43300  0.00002 -0.41213 -0.00004 -0.02426
                  z   0.04037  0.00013 -0.36787 -0.00004  0.31942 -0.00001
 14   c           x   0.01143  0.00000  0.18111 -0.00002  0.10810  0.00000
                  y   0.00005 -0.11687  0.00000 -0.12860 -0.00001  0.00012
                  z   0.05693  0.00004  0.12613  0.00002  0.07618  0.00000
 15   h           x  -0.00103  0.00000  0.18171  0.00002  0.10862  0.00000
                  y  -0.00008  0.18162  0.00007  0.16778  0.00003 -0.00097
                  z   0.05977 -0.00004  0.13346 -0.00007  0.08358  0.00000
 16   c           x  -0.02396 -0.00001  0.09222 -0.00001  0.07729  0.00000
                  y   0.00000  0.01735  0.00000  0.01301  0.00000 -0.00193
                  z   0.04076  0.00000 -0.01126 -0.00001 -0.00164  0.00000
 17   h           x  -0.12434 -0.00003 -0.26447  0.00007 -0.21388  0.00000
                  y   0.00014 -0.25660  0.00000 -0.21932  0.00001 -0.01647
                  z   0.05682  0.00008  0.04316  0.00005  0.04319  0.00000
 18   h           x   0.00019  0.00000  0.20517 -0.00003  0.17793  0.00000
                  y  -0.00019  0.43300 -0.00002  0.41213 -0.00004  0.02424
                  z  -0.04036 -0.00013 -0.36787 -0.00004 -0.31942 -0.00001
 19   c           x   0.25988  0.00003 -0.13567  0.00001  0.00502  0.00000
                  y   0.00000  0.01591 -0.00001 -0.11122 -0.00002 -0.07280
                  z   0.23033  0.00001 -0.06800  0.00000  0.24494  0.00000
 20   h           x   0.14900  0.00004 -0.22708  0.00002  0.20583  0.00000
                  y   0.00016 -0.31293 -0.00002 -0.27444  0.00015  0.48666
                  z   0.27246  0.00002 -0.03362  0.00000  0.18604 -0.00001

reduced mass(g/mol)     6.899    1.489    3.183    3.508    4.410    1.257


       mode              25       26       27       28       29       30

     frequency         862.53   927.70   927.82   979.25   995.70  1044.13

     symmetry            a        a        a        a        a        a   

        IR               YES      YES      YES      YES      YES      YES
|dDIP/dQ|   (a.u.)     0.0039   0.0000   0.0046   0.0000   0.0001   0.0005
intensity (km/mol)      27.70     0.00    37.96     0.00     0.01     0.46
intensity (  %   )      28.14     0.00    38.56     0.00     0.01     0.47
 
       RAMAN             YES      YES      YES      YES      YES      YES
 
  1   c           x   0.00001  0.00000  0.00000  0.00000  0.00000  0.04224
                  y   0.12542 -0.00294  0.00336 -0.01487  0.00051  0.00000
                  z   0.00000  0.00000  0.00000  0.00000  0.00000  0.01514
  2   c           x  -0.00001  0.00000  0.00000  0.00000  0.00000 -0.05807
                  y  -0.08083 -0.00072 -0.00255  0.06921  0.08425  0.00000
                  z   0.00002  0.00000  0.00000  0.00000  0.00000  0.18655
  3   c           x   0.00000  0.00000  0.00000  0.00000  0.00000 -0.00170
                  y  -0.07385 -0.00056  0.00080 -0.07044 -0.08576  0.00000
                  z   0.00002  0.00000  0.00000  0.00000  0.00000 -0.21162
  4   c           x  -0.00001  0.00000  0.00000  0.00000  0.00000  0.04224
                  y   0.12542  0.00294  0.00336  0.01487  0.00051  0.00000
                  z   0.00000  0.00000  0.00000  0.00000  0.00000  0.01514
  5   c           x   0.00001  0.00000  0.00000  0.00000  0.00000 -0.05807
                  y  -0.08084  0.00073 -0.00255 -0.06921  0.08425  0.00000
                  z  -0.00002  0.00000  0.00000  0.00000  0.00000  0.18655
  6   h           x  -0.00003  0.00000  0.00000  0.00000  0.00000  0.20373
                  y   0.46744  0.00682  0.01516 -0.48489 -0.48373  0.00000
                  z   0.00002  0.00000  0.00000  0.00000 -0.00001  0.40741
  7   h           x   0.00001  0.00001  0.00000  0.00001  0.00000  0.26136
                  y   0.45904  0.00493 -0.00979  0.50279  0.50100  0.00000
                  z   0.00003  0.00000  0.00000  0.00000  0.00001 -0.31910
  8   h           x   0.00003  0.00000  0.00000  0.00000  0.00000  0.20374
                  y   0.46753 -0.00684  0.01515  0.48487 -0.48374  0.00000
                  z  -0.00002  0.00000  0.00000  0.00000  0.00001  0.40741
  9   c           x   0.00001  0.00000  0.00000  0.00000  0.00000  0.00354
                  y  -0.06395 -0.04248 -0.04263 -0.00980 -0.00010  0.00000
                  z  -0.00001 -0.00001 -0.00001  0.00000  0.00000  0.00667
 10   c           x   0.00001  0.00000  0.00000  0.00000  0.00000 -0.03100
                  y   0.00394  0.11999  0.12014  0.00066  0.00232  0.00000
                  z   0.00000  0.00003  0.00003  0.00000  0.00000 -0.01194
 11   h           x  -0.00006  0.00001  0.00001 -0.00001  0.00000  0.10506
                  y  -0.07973 -0.48395 -0.48381 -0.02238 -0.02202  0.00002
                  z  -0.00001 -0.00014 -0.00014  0.00000 -0.00001 -0.03287
 12   h           x  -0.00001  0.00000  0.00000 -0.00001  0.00000  0.04195
                  y   0.04173  0.03407  0.03444 -0.02348 -0.00616  0.00001
                  z   0.00003  0.00001  0.00001  0.00000  0.00000 -0.00321
 13   h           x   0.00003  0.00000  0.00000  0.00000  0.00000 -0.07591
                  y   0.17544 -0.49774 -0.49875  0.03113 -0.00359 -0.00004
                  z  -0.00002 -0.00014 -0.00014  0.00000  0.00000  0.12882
 14   c           x  -0.00001  0.00000  0.00000  0.00000  0.00000  0.00354
                  y  -0.06395  0.04253 -0.04258  0.00980 -0.00010  0.00000
                  z   0.00001 -0.00001  0.00001  0.00000  0.00000  0.00667
 15   h           x   0.00001  0.00000  0.00000 -0.00001  0.00000  0.04195
                  y   0.04173 -0.03412  0.03440  0.02348 -0.00616 -0.00001
                  z  -0.00003  0.00001 -0.00001  0.00000  0.00000 -0.00321
 16   c           x  -0.00001  0.00000  0.00000  0.00000  0.00000 -0.03100
                  y   0.00394 -0.12013  0.11999 -0.00066  0.00232  0.00000
                  z   0.00000  0.00003 -0.00003  0.00000  0.00000 -0.01194
 17   h           x   0.00006  0.00001 -0.00001 -0.00001  0.00000  0.10507
                  y  -0.07973  0.48454 -0.48322  0.02238 -0.02202 -0.00002
                  z   0.00001 -0.00014  0.00014  0.00000  0.00001 -0.03287
 18   h           x  -0.00003  0.00000  0.00000  0.00000  0.00000 -0.07591
                  y   0.17544  0.49834 -0.49815 -0.03113 -0.00359  0.00004
                  z   0.00002 -0.00014  0.00014  0.00000  0.00000  0.12882
 19   c           x   0.00000  0.00000  0.00000  0.00000  0.00000 -0.00170
                  y  -0.07386  0.00055  0.00080  0.07044 -0.08576  0.00000
                  z  -0.00002  0.00000  0.00000  0.00000  0.00000 -0.21162
 20   h           x  -0.00001  0.00001  0.00000  0.00001  0.00000  0.26136
                  y   0.45912 -0.00492 -0.00980 -0.50279  0.50102  0.00000
                  z  -0.00003  0.00000  0.00000  0.00000 -0.00001 -0.31910

reduced mass(g/mol)     1.708    1.365    1.366    1.230    1.326    2.903


       mode              31       32       33       34       35       36

     frequency        1067.82  1067.94  1072.20  1079.74  1173.61  1229.46

     symmetry            a        a        a        a        a        a   

        IR               YES      YES      YES      YES      YES      YES
|dDIP/dQ|   (a.u.)     0.0029   0.0000   0.0024   0.0000   0.0010   0.0000
intensity (km/mol)      15.24     0.00     9.89     0.00     1.75     0.00
intensity (  %   )      15.48     0.00    10.05     0.00     1.78     0.00
 
       RAMAN             YES      YES      YES      YES      YES      YES
 
  1   c           x  -0.00002  0.00001  0.03228 -0.06444  0.05605  0.07002
                  y  -0.00201  0.00301 -0.00001  0.00001  0.00000  0.00000
                  z   0.00000  0.00001  0.05197 -0.02336 -0.04313  0.00362
  2   c           x   0.00000  0.00000  0.01014 -0.02116 -0.07605 -0.01076
                  y   0.00440 -0.00333  0.00000  0.00000  0.00000  0.00000
                  z   0.00001 -0.00001 -0.05773  0.05023  0.02720 -0.03381
  3   c           x   0.00000 -0.00001 -0.02703  0.03288  0.04545  0.02803
                  y  -0.00325 -0.00286  0.00000  0.00000  0.00000  0.00000
                  z   0.00001  0.00000 -0.02205  0.02461  0.03308 -0.03981
  4   c           x   0.00002  0.00001  0.03228  0.06444  0.05605 -0.07002
                  y  -0.00200 -0.00301  0.00001  0.00001  0.00000  0.00000
                  z   0.00000  0.00001  0.05197  0.02336 -0.04313 -0.00362
  5   c           x   0.00000  0.00000  0.01014  0.02116 -0.07605  0.01076
                  y   0.00439  0.00334  0.00000  0.00000  0.00000  0.00000
                  z  -0.00001 -0.00001 -0.05773 -0.05023  0.02720  0.03381
  6   h           x   0.00000  0.00000 -0.00083  0.03878 -0.47748 -0.33658
                  y  -0.00040 -0.01561 -0.00001  0.00002  0.00001  0.00000
                  z   0.00002 -0.00001 -0.07461  0.10709 -0.28650 -0.30039
  7   h           x   0.00000 -0.00004 -0.21827  0.06670  0.38049  0.47354
                  y   0.00429  0.02858  0.00001  0.00001  0.00000  0.00000
                  z   0.00001  0.00001  0.04532  0.01732 -0.08059 -0.20919
  8   h           x   0.00000  0.00000 -0.00083 -0.03878 -0.47748  0.33657
                  y  -0.00042  0.01561  0.00001  0.00002 -0.00001  0.00000
                  z  -0.00002 -0.00001 -0.07461 -0.10709 -0.28650  0.30039
  9   c           x   0.00000  0.00000  0.03341  0.02978  0.00999  0.02450
                  y  -0.05888 -0.05965 -0.00001 -0.00001  0.00000 -0.00001
                  z  -0.00001 -0.00001  0.05645  0.05549  0.00934  0.02691
 10   c           x  -0.00001  0.00000 -0.07219 -0.08814 -0.02751  0.00106
                  y   0.00158  0.00168  0.00001  0.00001  0.00000  0.00000
                  z   0.00000  0.00000 -0.04606 -0.04339 -0.00515 -0.00852
 11   h           x   0.00003  0.00003  0.34928  0.35330  0.04831  0.05971
                  y   0.33834  0.33774 -0.00003 -0.00002  0.00003  0.00001
                  z   0.00009  0.00009 -0.11073 -0.10999 -0.01525 -0.01941
 12   h           x   0.00002  0.00003  0.34695  0.33381  0.02289  0.12029
                  y   0.57542  0.57603 -0.00008 -0.00008  0.00000  0.00002
                  z   0.00015  0.00015 -0.01374 -0.01393  0.00496  0.00964
 13   h           x  -0.00002 -0.00001 -0.19840 -0.22676 -0.06882  0.00198
                  y  -0.22455 -0.22352 -0.00006 -0.00008 -0.00004  0.00000
                  z  -0.00002 -0.00003  0.36128  0.39918  0.12308 -0.00585
 14   c           x   0.00000  0.00000  0.03341 -0.02978  0.00999 -0.02450
                  y  -0.05894  0.05959  0.00001 -0.00001  0.00000 -0.00001
                  z   0.00001 -0.00001  0.05645 -0.05549  0.00934 -0.02690
 15   h           x  -0.00002  0.00003  0.34695 -0.33381  0.02289 -0.12029
                  y   0.57597 -0.57547  0.00008 -0.00008  0.00000  0.00002
                  z  -0.00015  0.00015 -0.01374  0.01393  0.00496 -0.00964
 16   c           x   0.00001  0.00000 -0.07219  0.08814 -0.02751 -0.00106
                  y   0.00158 -0.00168 -0.00001  0.00001  0.00000  0.00000
                  z   0.00000  0.00000 -0.04606  0.04339 -0.00515  0.00852
 17   h           x  -0.00003  0.00003  0.34928 -0.35330  0.04831 -0.05971
                  y   0.33866 -0.33741  0.00003 -0.00002 -0.00003  0.00001
                  z  -0.00009  0.00009 -0.11073  0.10999 -0.01525  0.01941
 18   h           x   0.00002 -0.00001 -0.19840  0.22676 -0.06882 -0.00198
                  y  -0.22476  0.22330  0.00006 -0.00008  0.00004  0.00000
                  z   0.00002 -0.00003  0.36128 -0.39918  0.12308  0.00585
 19   c           x   0.00000 -0.00001 -0.02703 -0.03288  0.04545 -0.02803
                  y  -0.00325  0.00285  0.00000  0.00000  0.00000  0.00000
                  z  -0.00001  0.00000 -0.02205 -0.02461  0.03308  0.03981
 20   h           x   0.00000 -0.00004 -0.21827 -0.06670  0.38050 -0.47353
                  y   0.00431 -0.02858 -0.00001  0.00001  0.00000  0.00000
                  z  -0.00001  0.00001  0.04532 -0.01732 -0.08059  0.20919

reduced mass(g/mol)     1.085    1.087    1.449    1.513    1.352    1.227


       mode              37       38       39       40       41       42

     frequency        1261.63  1268.20  1355.12  1360.18  1387.27  1390.29

     symmetry            a        a        a        a        a        a   

        IR               YES      YES      YES      YES      YES      YES
|dDIP/dQ|   (a.u.)     0.0007   0.0000   0.0028   0.0000   0.0000   0.0012
intensity (km/mol)       0.80     0.00    14.02     0.00     0.00     2.74
intensity (  %   )       0.81     0.00    14.24     0.00     0.00     2.79
 
       RAMAN             YES      YES      YES      YES      YES      YES
 
  1   c           x  -0.18516  0.21989  0.02952 -0.01685  0.00068 -0.01145
                  y  -0.00001  0.00001  0.00000  0.00000  0.00000  0.00000
                  z   0.02215 -0.00801  0.22513 -0.09276  0.05134  0.09334
  2   c           x  -0.00703  0.11456 -0.09784 -0.04187  0.01680 -0.05184
                  y   0.00000  0.00000  0.00000  0.00000  0.00000  0.00000
                  z  -0.06280  0.00509 -0.08512 -0.01350  0.01473 -0.04621
  3   c           x   0.04039 -0.09387  0.13197 -0.01264  0.02050  0.07151
                  y   0.00000  0.00000  0.00000  0.00000  0.00000  0.00000
                  z   0.01475 -0.06395 -0.09836  0.00820 -0.01246 -0.02803
  4   c           x  -0.18516 -0.21989  0.02952  0.01685 -0.00068 -0.01145
                  y   0.00001  0.00001  0.00000  0.00000  0.00000  0.00000
                  z   0.02215  0.00801  0.22513  0.09276 -0.05133  0.09335
  5   c           x  -0.00703 -0.11456 -0.09784  0.04187 -0.01680 -0.05184
                  y   0.00000  0.00000  0.00000  0.00000  0.00000  0.00000
                  z  -0.06280 -0.00509 -0.08512  0.01351 -0.01473 -0.04621
  6   h           x   0.15602  0.40207 -0.14051  0.29965 -0.19890 -0.01243
                  y   0.00001 -0.00001  0.00000  0.00000  0.00000  0.00000
                  z   0.07030  0.21624 -0.12611  0.26804 -0.16060 -0.01495
  7   h           x   0.51864 -0.16311 -0.12284  0.39811 -0.25877 -0.01924
                  y   0.00000  0.00000  0.00000  0.00000  0.00000  0.00000
                  z  -0.16675 -0.06171 -0.00981 -0.14364  0.08996  0.00598
  8   h           x   0.15601 -0.40207 -0.14052 -0.29965  0.19890 -0.01244
                  y  -0.00001 -0.00001  0.00000  0.00000  0.00000  0.00000
                  z   0.07029 -0.21624 -0.12612 -0.26803  0.16060 -0.01495
  9   c           x   0.03262  0.04972 -0.06200 -0.03323  0.00226 -0.00579
                  y  -0.00001 -0.00002  0.00003  0.00001  0.00002 -0.00002
                  z   0.05359  0.07712 -0.11165 -0.06537 -0.05072  0.05787
 10   c           x   0.02249  0.02856  0.01680  0.00801 -0.01759  0.02190
                  y   0.00000  0.00001 -0.00002 -0.00001 -0.00002  0.00002
                  z  -0.01169 -0.02769  0.09109  0.05317  0.06827 -0.07488
 11   h           x   0.09754  0.15243 -0.35859 -0.21887 -0.23638  0.27870
                  y   0.00002  0.00004 -0.00006 -0.00003 -0.00003  0.00004
                  z  -0.02747 -0.05291  0.16165  0.09611  0.11390 -0.12879
 12   h           x   0.33546  0.38501  0.34692  0.25163  0.49693 -0.57303
                  y   0.00003  0.00004  0.00004  0.00003  0.00006 -0.00007
                  z  -0.00388  0.01498 -0.21697 -0.13700 -0.17270  0.19764
 13   h           x   0.04446  0.03752  0.05516  0.02322 -0.02059  0.03611
                  y   0.00001  0.00000  0.00003  0.00001 -0.00001  0.00002
                  z  -0.06275 -0.02819 -0.06021 -0.01225  0.04786 -0.08482
 14   c           x   0.03262 -0.04973 -0.06200  0.03323 -0.00226 -0.00579
                  y   0.00001 -0.00002 -0.00003  0.00001  0.00002  0.00002
                  z   0.05359 -0.07712 -0.11165  0.06537  0.05072  0.05787
 15   h           x   0.33546 -0.38502  0.34691 -0.25164 -0.49693 -0.57303
                  y  -0.00003  0.00004 -0.00004  0.00003  0.00006  0.00007
                  z  -0.00388 -0.01498 -0.21696  0.13701  0.17270  0.19763
 16   c           x   0.02249 -0.02856  0.01680 -0.00801  0.01759  0.02190
                  y   0.00000  0.00001  0.00002 -0.00001 -0.00002 -0.00002
                  z  -0.01169  0.02769  0.09109 -0.05317 -0.06827 -0.07488
 17   h           x   0.09754 -0.15243 -0.35858  0.21888  0.23638  0.27870
                  y  -0.00002  0.00004  0.00006 -0.00003 -0.00003 -0.00004
                  z  -0.02747  0.05291  0.16165 -0.09612 -0.11391 -0.12879
 18   h           x   0.04446 -0.03752  0.05516 -0.02322  0.02059  0.03611
                  y  -0.00001  0.00000 -0.00003  0.00001 -0.00001 -0.00002
                  z  -0.06275  0.02819 -0.06021  0.01225 -0.04786 -0.08482
 19   c           x   0.04039  0.09387  0.13197  0.01263 -0.02050  0.07151
                  y   0.00000  0.00000  0.00000  0.00000  0.00000  0.00000
                  z   0.01475  0.06395 -0.09836 -0.00820  0.01246 -0.02803
 20   h           x   0.51864  0.16310 -0.12286 -0.39811  0.25877 -0.01924
                  y   0.00000  0.00000  0.00000  0.00000  0.00000  0.00000
                  z  -0.16675  0.06172 -0.00980  0.14364 -0.08996  0.00598

reduced mass(g/mol)     2.003    2.867    3.657    1.433    1.256    1.647


       mode              43       44       45       46       47       48

     frequency        1478.36  1523.24  1532.72  1595.21  1641.01  1688.66

     symmetry            a        a        a        a        a        a   

        IR               YES      YES      YES      YES      YES      YES
|dDIP/dQ|   (a.u.)     0.0032   0.0000   0.0005   0.0027   0.0000   0.0000
intensity (km/mol)      18.07     0.00     0.46    12.92     0.00     0.00
intensity (  %   )      18.36     0.00     0.47    13.13     0.00     0.00
 
       RAMAN             YES      YES      YES      YES      YES      YES
 
  1   c           x   0.00406 -0.03417 -0.02136 -0.16267  0.02998  0.18639
                  y   0.00000  0.00000  0.00000  0.00000  0.00000  0.00000
                  z  -0.11564 -0.02247  0.04485 -0.04224 -0.29958  0.00566
  2   c           x  -0.17677 -0.00364  0.02615  0.06622  0.06252 -0.25722
                  y   0.00000  0.00000  0.00000  0.00000  0.00000  0.00000
                  z  -0.03044  0.01750 -0.02414  0.11425  0.20116 -0.09992
  3   c           x   0.14458  0.02764 -0.04105  0.11786  0.12005  0.29047
                  y   0.00000  0.00000  0.00000  0.00000  0.00000  0.00000
                  z   0.06493 -0.01259  0.00012 -0.07722 -0.16556 -0.03578
  4   c           x   0.00406  0.03417 -0.02136 -0.16267 -0.02999 -0.18639
                  y   0.00000  0.00000  0.00000  0.00000  0.00000  0.00000
                  z  -0.11564  0.02247  0.04485 -0.04224  0.29958 -0.00567
  5   c           x  -0.17677  0.00364  0.02615  0.06622 -0.06252  0.25722
                  y   0.00000  0.00000  0.00000  0.00000  0.00000  0.00000
                  z  -0.03044 -0.01750 -0.02414  0.11425 -0.20116  0.09992
  6   h           x   0.31362 -0.03810  0.03980 -0.37180 -0.32077  0.20533
                  y   0.00000  0.00000  0.00000  0.00000  0.00000 -0.00001
                  z   0.39196 -0.00657 -0.02354 -0.21996 -0.07974  0.29436
  7   h           x  -0.21475 -0.04472  0.13745 -0.44994 -0.29128 -0.31479
                  y   0.00000  0.00000  0.00000  0.00000  0.00000  0.00000
                  z   0.22432  0.01445 -0.07046  0.12045 -0.03489  0.20295
  8   h           x   0.31361  0.03810  0.03980 -0.37180  0.32077 -0.20533
                  y   0.00000  0.00000  0.00000  0.00000  0.00000 -0.00001
                  z   0.39196  0.00657 -0.02354 -0.21996  0.07974 -0.29435
  9   c           x   0.07038 -0.10013  0.07873  0.03741 -0.03525  0.07089
                  y   0.00001 -0.00001  0.00001  0.00000  0.00000  0.00001
                  z   0.00028  0.02690 -0.03136  0.02075 -0.00681 -0.02396
 10   c           x  -0.03249  0.00132  0.00997  0.01759  0.05909 -0.03939
                  y   0.00000 -0.00001  0.00001  0.00001  0.00001 -0.00001
                  z   0.00808  0.02331 -0.02759 -0.02034 -0.04212  0.02939
 11   h           x  -0.13240  0.40555 -0.40256 -0.09166 -0.23775  0.11001
                  y   0.00000  0.00001 -0.00002  0.00001 -0.00002  0.00001
                  z   0.03195 -0.05401  0.04932 -0.00300  0.00228  0.01161
 12   h           x   0.02159  0.20900 -0.24925  0.03039 -0.16996 -0.08597
                  y   0.00001  0.00000 -0.00001  0.00001 -0.00002  0.00002
                  z   0.00745 -0.04034  0.04104  0.02738  0.02990  0.00768
 13   h           x  -0.10438  0.17194 -0.15028 -0.02753 -0.00705 -0.01033
                  y  -0.00007  0.00014 -0.00013 -0.00004 -0.00004  0.00002
                  z   0.21179 -0.48972  0.45789  0.13227  0.18690 -0.08084
 14   c           x   0.07038  0.10013  0.07873  0.03741  0.03525 -0.07089
                  y  -0.00001 -0.00001 -0.00001  0.00000  0.00000  0.00001
                  z   0.00028 -0.02690 -0.03136  0.02075  0.00681  0.02396
 15   h           x   0.02159 -0.20900 -0.24924  0.03039  0.16996  0.08597
                  y  -0.00001  0.00000  0.00001 -0.00001 -0.00002  0.00002
                  z   0.00745  0.04034  0.04104  0.02738 -0.02990 -0.00768
 16   c           x  -0.03249 -0.00132  0.00997  0.01759 -0.05909  0.03938
                  y   0.00000 -0.00001 -0.00001 -0.00001  0.00001 -0.00001
                  z   0.00808 -0.02331 -0.02759 -0.02034  0.04212 -0.02940
 17   h           x  -0.13240 -0.40555 -0.40256 -0.09167  0.23775 -0.11001
                  y   0.00000  0.00001  0.00002 -0.00001 -0.00002  0.00001
                  z   0.03195  0.05401  0.04932 -0.00300 -0.00228 -0.01161
 18   h           x  -0.10439 -0.17194 -0.15028 -0.02753  0.00705  0.01033
                  y   0.00007  0.00014  0.00013  0.00004 -0.00004  0.00002
                  z   0.21179  0.48972  0.45789  0.13227 -0.18690  0.08085
 19   c           x   0.14458 -0.02764 -0.04105  0.11786 -0.12005 -0.29047
                  y   0.00000  0.00000  0.00000  0.00000  0.00000  0.00000
                  z   0.06493  0.01259  0.00012 -0.07722  0.16556  0.03578
 20   h           x  -0.21475  0.04472  0.13746 -0.44994  0.29127  0.31480
                  y   0.00000  0.00000  0.00000  0.00000  0.00000  0.00000
                  z   0.22432 -0.01445 -0.07046  0.12045  0.03489 -0.20295

reduced mass(g/mol)     2.697    1.321    1.304    2.506    5.044    5.510


       mode              49       50       51       52       53       54

     frequency        1756.71  1756.96  3322.42  3323.15  3360.77  3360.82

     symmetry            a        a        a        a        a        a   

        IR               YES      YES      YES      YES      YES      YES
|dDIP/dQ|   (a.u.)     0.0000   0.0010   0.0074   0.0000   0.0012   0.0000
intensity (km/mol)       0.00     1.83    98.44     0.00     2.43     0.00
intensity (  %   )       0.00     1.86   100.00     0.00     2.47     0.00
 
       RAMAN             YES      YES      YES      YES      YES      YES
 
  1   c           x  -0.00804  0.04878  0.00015  0.00020 -0.00162 -0.00162
                  y   0.00001  0.00000  0.00000  0.00000  0.00000  0.00000
                  z   0.06559 -0.03005  0.00020  0.00019 -0.00033 -0.00030
  2   c           x  -0.06094 -0.01959  0.00059  0.00034  0.00023 -0.00084
                  y   0.00000  0.00000  0.00000  0.00000  0.00000  0.00000
                  z  -0.05391  0.00183 -0.00093 -0.00083 -0.00108  0.00083
  3   c           x   0.05362  0.01142  0.00006  0.00015  0.00111 -0.00127
                  y   0.00000  0.00000  0.00000  0.00000  0.00000  0.00000
                  z   0.02008  0.00878  0.00074 -0.00037  0.00317 -0.00345
  4   c           x   0.00802  0.04878  0.00015 -0.00020 -0.00162  0.00161
                  y   0.00001  0.00000  0.00000  0.00000  0.00000  0.00000
                  z  -0.06558 -0.03008  0.00020 -0.00019 -0.00033  0.00030
  5   c           x   0.06095 -0.01956  0.00059 -0.00034  0.00023  0.00084
                  y   0.00000  0.00000  0.00000  0.00000  0.00000  0.00000
                  z   0.05391  0.00186 -0.00093  0.00083 -0.00108 -0.00083
  6   h           x   0.04615  0.03650 -0.00605 -0.00378 -0.00735  0.00755
                  y   0.00001 -0.00001  0.00000  0.00000  0.00000  0.00000
                  z   0.03114  0.05363  0.00789  0.00512  0.00969 -0.00964
  7   h           x  -0.02097 -0.01562 -0.00271  0.00081 -0.01194  0.01368
                  y   0.00000  0.00000  0.00000  0.00000  0.00000  0.00000
                  z   0.05573  0.02300 -0.00841  0.00281 -0.03646  0.04050
  8   h           x  -0.04617  0.03648 -0.00605  0.00378 -0.00734 -0.00757
                  y   0.00001  0.00001  0.00000  0.00000  0.00000  0.00000
                  z  -0.03117  0.05362  0.00789 -0.00512  0.00967  0.00966
  9   c           x  -0.21137 -0.22338  0.00758 -0.00752  0.01014 -0.01013
                  y  -0.00004 -0.00004  0.00000  0.00000 -0.00002  0.00002
                  z   0.13986  0.13865  0.00951 -0.00949  0.06057 -0.06045
 10   c           x   0.18082  0.18485 -0.03661  0.03662  0.00902 -0.00887
                  y   0.00004  0.00004 -0.00001  0.00001  0.00000  0.00000
                  z  -0.14955 -0.15139  0.03133 -0.03128 -0.01382  0.01373
 11   h           x  -0.38021 -0.39059 -0.08250  0.08254  0.02661 -0.02638
                  y   0.00001  0.00001  0.00014 -0.00014 -0.00004  0.00004
                  z  -0.09361 -0.09402 -0.47682  0.47717  0.14135 -0.13986
 12   h           x   0.28306  0.27679 -0.03538  0.03517 -0.15241  0.15208
                  y  -0.00003 -0.00003  0.00004 -0.00004  0.00017 -0.00017
                  z   0.05779  0.05522 -0.15878  0.15755 -0.66670  0.66535
 13   h           x   0.06445  0.06805  0.46307 -0.46319 -0.07983  0.07828
                  y  -0.00010 -0.00010 -0.00004  0.00004  0.00001 -0.00001
                  z   0.34437  0.34568  0.14937 -0.14953 -0.02591  0.02541
 14   c           x   0.21149 -0.22327  0.00758  0.00752  0.01012  0.01016
                  y  -0.00004  0.00004  0.00000  0.00000  0.00002  0.00002
                  z  -0.13994  0.13858  0.00951  0.00949  0.06043  0.06058
 15   h           x  -0.28321  0.27664 -0.03538 -0.03518 -0.15206 -0.15243
                  y  -0.00003  0.00003 -0.00004 -0.00004 -0.00017 -0.00017
                  z  -0.05782  0.05519 -0.15878 -0.15756 -0.66519 -0.66686
 16   c           x  -0.18092  0.18476 -0.03661 -0.03662  0.00900  0.00889
                  y   0.00004 -0.00004  0.00001  0.00001  0.00000  0.00000
                  z   0.14963 -0.15131  0.03132  0.03128 -0.01379 -0.01376
 17   h           x   0.38041 -0.39039 -0.08249 -0.08254  0.02655  0.02644
                  y   0.00001 -0.00001 -0.00014 -0.00014  0.00004  0.00004
                  z   0.09366 -0.09397 -0.47680 -0.47719  0.14103  0.14018
 18   h           x  -0.06449  0.06802  0.46305  0.46321 -0.07966 -0.07846
                  y  -0.00010  0.00010  0.00004  0.00004 -0.00001 -0.00001
                  z  -0.34456  0.34550  0.14937  0.14954 -0.02585 -0.02547
 19   c           x  -0.05363  0.01139  0.00006 -0.00015  0.00111  0.00128
                  y   0.00000  0.00000  0.00000  0.00000  0.00000  0.00000
                  z  -0.02008  0.00877  0.00074  0.00037  0.00317  0.00346
 20   h           x   0.02098 -0.01561 -0.00271 -0.00081 -0.01191 -0.01371
                  y   0.00000  0.00000  0.00000  0.00000  0.00000  0.00000
                  z  -0.05574  0.02297 -0.00841 -0.00281 -0.03637 -0.04058

reduced mass(g/mol)     3.949    3.869    1.062    1.062    1.097    1.097


       mode              55       56       57       58       59       60

     frequency        3370.96  3374.04  3389.97  3392.89  3474.67  3474.68

     symmetry            a        a        a        a        a        a   

        IR               YES      YES      YES      YES      YES      YES
|dDIP/dQ|   (a.u.)     0.0006   0.0000   0.0017   0.0000   0.0001   0.0000
intensity (km/mol)       0.65     0.00     5.15     0.00     0.01     0.00
intensity (  %   )       0.66     0.00     5.23     0.00     0.01     0.00
 
       RAMAN             YES      YES      YES      YES      YES      YES
 
  1   c           x   0.00227 -0.00138 -0.00027  0.00243 -0.00036 -0.00036
                  y   0.00000  0.00000  0.00000  0.00000  0.00000  0.00000
                  z  -0.00066  0.00266  0.00396  0.00118  0.00016  0.00016
  2   c           x   0.01694  0.01734  0.03586  0.03576 -0.00006 -0.00015
                  y   0.00000  0.00000  0.00000  0.00000  0.00000  0.00000
                  z  -0.02530 -0.02494 -0.04162 -0.04190  0.00007  0.00015
  3   c           x   0.01717  0.01753 -0.01414 -0.01381  0.00000  0.00005
                  y   0.00000  0.00000  0.00000  0.00000  0.00000  0.00000
                  z   0.05049  0.05018 -0.02984 -0.03052 -0.00006  0.00006
  4   c           x   0.00227  0.00138 -0.00027 -0.00243 -0.00036  0.00036
                  y   0.00000  0.00000  0.00000  0.00000  0.00000  0.00000
                  z  -0.00066 -0.00266  0.00396 -0.00118  0.00016 -0.00016
  5   c           x   0.01694 -0.01734  0.03585 -0.03577 -0.00006  0.00015
                  y   0.00000  0.00000  0.00000  0.00000  0.00000  0.00000
                  z  -0.02530  0.02494 -0.04162  0.04191  0.00007 -0.00015
  6   h           x  -0.22213 -0.22422 -0.38269 -0.38165  0.00102  0.00183
                  y  -0.00001 -0.00001 -0.00001 -0.00001  0.00000  0.00000
                  z   0.27770  0.27873  0.47310  0.47247 -0.00229 -0.00324
  7   h           x  -0.20990 -0.20996  0.12424  0.12408  0.00021 -0.00015
                  y   0.00001  0.00001  0.00000  0.00000  0.00000  0.00000
                  z  -0.56926 -0.56772  0.33184  0.33363  0.00017 -0.00030
  8   h           x  -0.22211  0.22422 -0.38265  0.38170  0.00102 -0.00183
                  y   0.00001 -0.00001  0.00001 -0.00001  0.00000  0.00000
                  z   0.27767 -0.27873  0.47305 -0.47253 -0.00229  0.00324
  9   c           x  -0.00050 -0.00068  0.00025  0.00010  0.00074 -0.00074
                  y   0.00000  0.00000  0.00000  0.00000  0.00000  0.00000
                  z  -0.00373 -0.00359  0.00039  0.00131  0.00377 -0.00378
 10   c           x   0.00020 -0.00080  0.00056 -0.00047  0.04704 -0.04699
                  y   0.00000  0.00000  0.00000  0.00000 -0.00001  0.00001
                  z   0.00042  0.00061  0.00001 -0.00031  0.05287 -0.05281
 11   h           x  -0.00018 -0.00128  0.00029  0.00021 -0.07759  0.07749
                  y   0.00000  0.00000  0.00000  0.00000  0.00014 -0.00014
                  z   0.00025 -0.00835  0.00395 -0.00094 -0.48511  0.48456
 12   h           x   0.00750  0.00856 -0.00210 -0.00109 -0.00775  0.00776
                  y  -0.00001 -0.00001  0.00000  0.00000  0.00001 -0.00001
                  z   0.03989  0.04070 -0.00775 -0.01191 -0.04227  0.04233
 13   h           x  -0.00526  0.00615 -0.00509  0.00596 -0.48023  0.47975
                  y   0.00000  0.00000  0.00000  0.00000  0.00004 -0.00004
                  z  -0.00137  0.00203 -0.00159  0.00155 -0.14723  0.14707
 14   c           x  -0.00050  0.00068  0.00025 -0.00010  0.00074  0.00074
                  y   0.00000  0.00000  0.00000  0.00000  0.00000  0.00000
                  z  -0.00373  0.00359  0.00039 -0.00131  0.00376  0.00378
 15   h           x   0.00750 -0.00857 -0.00210  0.00109 -0.00774 -0.00777
                  y   0.00001 -0.00001  0.00000  0.00000 -0.00001 -0.00001
                  z   0.03988 -0.04071 -0.00775  0.01192 -0.04223 -0.04238
 16   c           x   0.00020  0.00080  0.00056  0.00047  0.04699  0.04704
                  y   0.00000  0.00000  0.00000  0.00000  0.00001  0.00001
                  z   0.00042 -0.00061  0.00001  0.00031  0.05281  0.05286
 17   h           x  -0.00018  0.00128  0.00029 -0.00021 -0.07750 -0.07758
                  y   0.00000  0.00000  0.00000  0.00000 -0.00014 -0.00014
                  z   0.00026  0.00835  0.00395  0.00094 -0.48460 -0.48507
 18   h           x  -0.00526 -0.00615 -0.00509 -0.00596 -0.47973 -0.48025
                  y   0.00000  0.00000  0.00000  0.00000 -0.00004 -0.00004
                  z  -0.00137 -0.00203 -0.00159 -0.00155 -0.14708 -0.14723
 19   c           x   0.01717 -0.01754 -0.01413  0.01381  0.00000 -0.00005
                  y   0.00000  0.00000  0.00000  0.00000  0.00000  0.00000
                  z   0.05048 -0.05019 -0.02984  0.03052 -0.00006 -0.00006
 20   h           x  -0.20989  0.20998  0.12421 -0.12409  0.00021  0.00015
                  y  -0.00001  0.00001  0.00000  0.00000  0.00000  0.00000
                  z  -0.56922  0.56777  0.33178 -0.33367  0.00016  0.00031

reduced mass(g/mol)     1.091    1.091    1.099    1.100    1.118    1.118
 

         **************************************************************
         *                                                            *
         *  zero point VIBRATIONAL energy  :      0.1725244  Hartree  *
         *    SCF-energy                   :   -382.3457536           *
         *    SCF + E(vib0)                :   -382.1732291           *
         *                                                            *
         **************************************************************




 time elapsed for vibrational analysis     0.06 sec


    ------------------------------------------------------------------------
         total  cpu-time :  50.31 seconds
         total wall-time :  51.48 seconds
    ------------------------------------------------------------------------


   ****  force : all done  ****


    2016-01-11 17:53:07.494 

