A PARALLEL dscf calculation will be started!
Parallel program dscf_mpi will be taken out of the TURBODIR directory.
STARTING dscf ON 2 PROCESSORS!
RUNNING PROGRAM /soft/turbomole-6.0/TURBOMOLE/bin/em64t-unknown-linux-gnu_mpi/dscf_mpi.
PLEASE WAIT UNTIL dscf HAS FINISHED.
Look for the output in slave1.output.
  this is node-proc. number 1 running on node 
 nano00                                                                         
  
  the total number of node-proc. spawned is            2
  parallel platform: MPP, linuxcluster or SP3
  call pa_barr(90)

 dscf(nano00) : TURBOMOLE V6.0 5 Feb 2009 at 11:50:54
 Copyright (C) 2009 TURBOMOLE GmbH, Karlsruhe


    2016-01-11 18:06:01.007 


 SCF run will be profiled !



                             d s c f - program

                   idea & directorship : reinhart ahlrichs
                   program development : marco haeser
                                         michael baer
                           dft version : oliver treutler
           parallelized version : malte v. arnim, gina corongiu, GMD 


                          quantum chemistry group
                          universitaet  karlsruhe
                                  germany




                          References             
                                                 
          TURBOMOLE:                             
              R. Ahlrichs, M. Baer, M. Haeser, H. Horn, and
              C. Koelmel
              Electronic structure calculations on workstation
              computers: the program system TURBOMOLE
              Chem. Phys. Lett. 162: 165 (1989)
          Density Functional:                              
              O. Treutler and R. Ahlrichs                      
              Efficient Molecular Numerical Integration Schemes
              J. Chem. Phys. 102: 346 (1995)                   
          Parallel Version:                                
              Performance of parallel TURBOMOLE for Density    
              Functional Calculations                          
              M. v. Arnim and R. Ahlrichs                      
              J. Comp. Chem. 19: 1746 (1998)                   
                                         




              +--------------------------------------------------+
              | Atomic coordinate, charge and isotop information |
              +--------------------------------------------------+


              atomic coordinates              atom shells charge pseudo isotop
    -2.69176330   -0.00007129   -0.44712612    c      3    6.000    0     0
    -1.69851645   -0.00007332    2.06488947    c      3    6.000    0     0
     0.92683848   -0.00007460    2.49592179    c      3    6.000    0     0
     2.69176331   -0.00007127    0.44712612    c      3    6.000    0     0
     1.69851645   -0.00007331   -2.06488947    c      3    6.000    0     0
    -3.00422546   -0.00010960    3.69235578    h      1    1.000    0     0
     1.65164862   -0.00009936    4.45456855    h      1    1.000    0     0
     3.00422542   -0.00010956   -3.69235581    h      1    1.000    0     0
     5.46170421   -0.00013117    1.01478225    c      3    6.000    0     0
     7.37290032    0.00033137   -0.68855681    c      3    6.000    0     0
     7.04373608    0.00092237   -2.74543891    h      1    1.000    0     0
     5.92883353   -0.00065938    3.05381618    h      1    1.000    0     0
     9.36352819    0.00017228   -0.07445320    h      1    1.000    0     0
    -5.46170422   -0.00013118   -1.01478225    c      3    6.000    0     0
    -5.92883353   -0.00065944   -3.05381619    h      1    1.000    0     0
    -7.37290032    0.00033139    0.68855681    c      3    6.000    0     0
    -7.04373606    0.00092244    2.74543891    h      1    1.000    0     0
    -9.36352819    0.00017229    0.07445322    h      1    1.000    0     0
    -0.92683849   -0.00007461   -2.49592179    c      3    6.000    0     0
    -1.65164853   -0.00009927   -4.45456858    h      1    1.000    0     0
 

     center of nuclear mass  :    0.00000000    0.00000000    0.00000000

     center of nuclear charge:    0.00000000    0.00000321    0.00000000


              +--------------------------------------------------+
              |               basis set information              |
              +--------------------------------------------------+


              we will work with the  1s 3p 5d  7f  9g ... basis set
              ...i.e. with spherical basis functions...


   type   atoms  prim   cont   basis
   ---------------------------------------------------------------------------
    c       10     15      5   sto-3g hondo   [2s1p|6s3p]
    h       10      3      1   sto-3g hondo   [1s|3s]
   ---------------------------------------------------------------------------
   total:   20    180     60
   ---------------------------------------------------------------------------

   total number of primitive shells          :   12
   total number of contracted shells         :   40
   total number of cartesian basis functions :   60
   total number of SCF-basis functions       :   60


 integral neglect threshold       :  0.56E-09
 integral storage threshold THIZE :  0.10E-04
 integral storage threshold THIME :         5


 symmetry group of the molecule :   c1 

 the group has the following generators :
   c1(z)

    1 symmetry operations found

 there are 1 real representations :   a   

 maximum number of shells which are related by symmetry :  1


    mo occupation :
   irrep   mo's   occupied
    a       60       35
 
 number of basis functions   :           60
 number of occupied orbitals :           35
 
  
           ------------------
           density functional
           ------------------
 B-P86 functional
 exchange:    LDA + Becke (B88)
 correlation: LDA (VWN) + Perdew (P86)
 iterations will be done with small grid
  
 spherical integration : Lebedev's spherical grid
 spherical gridsize    :           3
    i.e. gridpoints    :         302
 value for diffuse not defined
 radial integration    : Chebyshev 2nd kind (scaling 3)
 radial gridsize       :           3
 integration cells     :          20
 partition function    : becke
 partition sharpness   :           3
  

 <rddim> : input of entry tasksize
           from data group '$pardft' failed !

               Default values taken

 <rddim> : input of entry memdiv
           from data group '$pardft' failed !

               Default values taken

          ------------------------
          nuclear repulsion energy  :   443.892580409    
          ------------------------

 
          -----------------
          -S integrals
          -----------------

 1e-integrals will be neglected if expon. factor < 0.556994E-10
       ----------------------
            OVERLAP(CAO)     
       ----------------------
   1.00000000000000       0.248362398964366        1.00000000000000     
  0.000000000000000E+000  0.000000000000000E+000   1.00000000000000     
  0.000000000000000E+000  0.000000000000000E+000  0.000000000000000E+000
   1.00000000000000       0.000000000000000E+000  0.000000000000000E+000
  0.000000000000000E+000  0.000000000000000E+000   1.00000000000000     
  5.040646810162197E-007  3.493981870536888E-002  2.132045175837375E-002
 -4.353967607822840E-008  5.392144653710827E-002   1.00000000000000     
  3.493981870536889E-002  0.350081676597151       0.138685316802331     
 -2.832169711417277E-007  0.350748332173670       0.248362398964366     
   1.00000000000000      -2.132045175837375E-002 -0.138685316802331     
  0.130470617899861       1.458676139519954E-007 -0.180648857678138     
  0.000000000000000E+000  0.000000000000000E+000   1.00000000000000     
  4.353967607822871E-008  2.832169711417328E-007  1.458676139519978E-007
  0.201898880727814       3.689130435108634E-007  0.000000000000000E+000
  0.000000000000000E+000  0.000000000000000E+000   1.00000000000000     
 -5.392144653710829E-002 -0.350748332173670      -0.180648857678138     
  3.689130435108573E-007 -0.254979230095952       0.000000000000000E+000
  0.000000000000000E+000  0.000000000000000E+000  0.000000000000000E+000
   1.00000000000000       0.000000000000000E+000  1.519813423261712E-003
  2.771691979132993E-003 -2.532207418701802E-009  2.254247019390624E-003
  7.414865072995068E-007  3.680684339421615E-002  6.023067834581339E-002
 -2.931005798537561E-008  9.888708252720910E-003   1.00000000000000     
  1.519813423261713E-003  5.481260992292167E-002  6.336977057524601E-002
 -5.789438522756176E-008  5.153931876780946E-002  3.680684339421614E-002
  0.360714016292635       0.379947203154477      -1.848937262818167E-007
  6.237995564087921E-002  0.248362398964366        1.00000000000000     
 -2.771691979132993E-003 -6.336977057524601E-002 -5.790752659479120E-002
  7.362077072512752E-008 -6.553941898544904E-002 -6.023067834581339E-002
 -0.379947203154477      -0.313492062145340       2.547470786782369E-007
 -8.594727245299059E-002  0.000000000000000E+000  0.000000000000000E+000
   1.00000000000000       2.532207418701813E-009  5.789438522756233E-008
  7.362077072512824E-008  2.267595886899782E-002  5.987656789491964E-008
  2.931005798537561E-008  1.848937262818167E-007  2.547470786782369E-007
  0.210000227192903       4.182452544895048E-008  0.000000000000000E+000
  0.000000000000000E+000  0.000000000000000E+000   1.00000000000000     
 -2.254247019390624E-003 -5.153931876780945E-002 -6.553941898544903E-002
  5.987656789491903E-008 -3.062795838178204E-002 -9.888708252720924E-003
 -6.237995564087939E-002 -8.594727245299083E-002  4.182452544895060E-008
  0.195889353370138       0.000000000000000E+000  0.000000000000000E+000
  0.000000000000000E+000  0.000000000000000E+000   1.00000000000000     
  0.000000000000000E+000  2.773114112536744E-004  7.511144649517411E-004
  2.954101079653170E-012  1.247668752912463E-004  0.000000000000000E+000
  1.476627901460487E-003  3.267004831668112E-003  1.525153228976586E-009
 -1.203850549443018E-003  4.902246906409872E-007  3.480943923081296E-002
  3.770533086236773E-002  7.107948245608244E-008 -4.376986360787309E-002
   1.00000000000000       2.773114112536744E-004  2.081711866647659E-002
  3.370271381444502E-002  1.325513326026856E-010  5.598324207128129E-003
  1.476627901460487E-003  5.390760509724124E-002  7.552155870933525E-002
  3.525613063267973E-008 -2.782875282758761E-002  3.480943923081296E-002
  0.349327990170103       0.245799133593736       4.633635298883848E-007
 -0.285333514022256       0.248362398964366        1.00000000000000     
 -7.511144649517411E-004 -3.370271381444502E-002 -5.065143178457370E-002
 -2.302308866049828E-010 -9.723833932116371E-003 -3.267004831668112E-003
 -7.552155870933525E-002 -9.404811174508801E-002 -5.429760023952450E-008
  4.285877290221621E-002 -3.770533086236773E-002 -0.245799133593736     
 -2.343024894419280E-002 -4.237010911359834E-007  0.260909876221842     
  0.000000000000000E+000  0.000000000000000E+000   1.00000000000000     
 -2.954101079653170E-012 -1.325513326026856E-010 -2.302308866049828E-010
  7.887441647592877E-003 -3.824342315000222E-011 -1.525153228976596E-009
 -3.525613063268029E-008 -5.429760023952537E-008  2.226185564717578E-002
  2.000798873885178E-008 -7.107948245608276E-008 -4.633635298883899E-007
 -4.237010911359878E-007  0.201329263589436       4.918492569982616E-007
  0.000000000000000E+000  0.000000000000000E+000  0.000000000000000E+000
   1.00000000000000      -1.247668752912463E-004 -5.598324207128129E-003
 -9.723833932116371E-003 -3.824342315000222E-011  6.272225282881942E-003
  1.203850549443018E-003  2.782875282758761E-002  4.285877290221621E-002
  2.000798873885146E-008  6.468932169814612E-003  4.376986360787309E-002
  0.285333514022256       0.260909876221842       4.918492569982565E-007
 -0.101545407841833       0.000000000000000E+000  0.000000000000000E+000
  0.000000000000000E+000  0.000000000000000E+000   1.00000000000000     
  0.000000000000000E+000  1.476627897552064E-003  3.267004825853435E-003
 -1.496698786171569E-009 -1.203850541382426E-003  0.000000000000000E+000
  3.566119877586123E-004  6.095733574723731E-004  3.062117333909467E-012
 -7.410594153739580E-004  0.000000000000000E+000  1.640184792464979E-003
  6.380001722732431E-004  1.070370452197875E-009 -3.770741797510805E-003
  5.040647170515070E-007  3.493981904088095E-002 -2.132045193632459E-002
 -4.362786939728615E-008 -5.392144705476284E-002   1.00000000000000     
  1.476627897552064E-003  5.390760501485650E-002  7.552155865135946E-002
 -3.459836492091738E-008 -2.782875266942211E-002  3.566119877586123E-004
  2.398026939893735E-002  2.468601274961647E-002  1.240071709484270E-010
 -3.001082962680823E-002  1.640184792464979E-003  5.728203717136614E-002
  1.416903217553717E-002  2.377133116265158E-008 -8.374255082754337E-002
  3.493981904088095E-002  0.350081678534733      -0.138685317185225     
 -2.837906496329753E-007 -0.350748333581771       0.248362398964366     
   1.00000000000000      -3.267004825853435E-003 -7.552155865135946E-002
 -9.404811177611852E-002  5.328458214331232E-008  4.285877268908887E-002
 -6.095733574723731E-004 -2.468601274961647E-002 -1.816013201739213E-002
 -1.373764684862370E-010  3.324631760358181E-002 -6.380001722732431E-004
 -1.416903217553718E-002  1.995020856178735E-002 -6.477075615778801E-009
  2.281768867956383E-002  2.132045193632459E-002  0.138685317185225     
  0.130470619286569      -1.461630801577673E-007 -0.180648858103036     
  0.000000000000000E+000  0.000000000000000E+000   1.00000000000000     
  1.496698786171558E-009  3.459836492091681E-008  5.328458214331145E-008
  2.226185560952511E-002 -1.963470410356828E-008 -3.062117333909467E-012
 -1.240071709484270E-010 -1.373764684862370E-010  9.187296575740894E-003
  1.670088171909050E-010 -1.070370452197875E-009 -2.377133116265158E-008
 -6.477075615778799E-009  2.381090496852832E-002  3.828114914614019E-008
  4.362786939728646E-008  2.837906496329803E-007 -1.461630801577699E-007
  0.201898882192978      -3.696603060585446E-007  0.000000000000000E+000
  0.000000000000000E+000  0.000000000000000E+000   1.00000000000000     
  1.203850541382426E-003  2.782875266942212E-002  4.285877268908889E-002
 -1.963470410356860E-008  6.468932288333503E-003  7.410594153739580E-004
  3.001082962680823E-002  3.324631760358181E-002  1.670088171909050E-010
 -3.123031089451978E-002  3.770741797510805E-003  8.374255082754337E-002
  2.281768867956382E-002  3.828114914614019E-008 -0.111047385304416     
  5.392144705476283E-002  0.350748333581771      -0.180648858103036     
 -3.696603060585385E-007 -0.254979230278172       0.000000000000000E+000
  0.000000000000000E+000  0.000000000000000E+000  0.000000000000000E+000
   1.00000000000000       4.882371872490992E-003  9.023852211745600E-002
 -8.847379717591650E-003 -1.084636595445248E-006  0.117209611197954     
  6.025426736605202E-002  0.482651907974948      -0.289350516751269     
 -8.039278173575925E-006  0.360653262484584       5.170159638683848E-003
  9.402163417455671E-002 -0.116552675845688      -1.037722294908623E-006
  3.547324196271493E-002  7.348102480180454E-005  5.602155956692880E-003
 -8.148467516190371E-003 -5.482944058050900E-008  4.642503616651830E-003
  9.950946153198378E-006  1.633073234792454E-003 -1.873364648033445E-003
 -1.445821274479087E-008  2.293432195091124E-003   1.00000000000000     
  7.449223935009724E-005  5.650261795742739E-003  6.269349866968741E-003
 -4.051691769681952E-008  7.075184059518708E-003  5.128255473781604E-003
  9.347399286648797E-002  9.868047938451650E-002 -7.670717615768112E-007
  7.038897242580126E-002  6.010962745985060E-002  0.482063921392420     
  0.160346322600216      -5.478471513538634E-006  0.433302169068700     
  4.956376666429198E-003  9.121635198787814E-002 -2.980856838782994E-002
 -8.050674452183491E-007  0.114848990614688       7.932694400850031E-005
  5.877122108164041E-003 -7.049488443618915E-005 -3.919567802729394E-008
  9.806052948908926E-003  4.983709692064828E-002   1.00000000000000     
  7.348102812534740E-005  5.602156115188413E-003  8.148467696084478E-003
 -5.473537068979804E-008 -4.642503800327657E-003  9.950946138602989E-006
  1.633073233333064E-003  1.873364627725724E-003 -1.443365417042699E-008
 -2.293432208474930E-003  7.798532393134427E-005  5.814674952121283E-003
  3.089897326643940E-003 -5.199266468235984E-008 -9.204420264195554E-003
  4.882371679025283E-003  9.023851955654377E-002  8.847378223930089E-003
 -1.083973647779712E-006 -0.117209608389484       6.025426728123254E-002
  0.482651907630468       0.289350506122613      -8.033179475694556E-006
 -0.360653270741879       9.600278379038399E-005  6.656500659275697E-004
   1.00000000000000       0.000000000000000E+000  7.516946244701837E-008
  3.073610984774522E-007 -2.257149919553616E-012  5.510952994961576E-008
  0.000000000000000E+000  2.326726969319356E-006  8.365323148972042E-006
 -6.758386702093010E-011 -1.226845751270062E-006  0.000000000000000E+000
  1.228598050913594E-003  2.806786097990160E-003 -3.501326817048607E-008
 -9.167287721483903E-004  1.468454203706151E-007  2.966675490095414E-002
  4.846834958792784E-002 -1.048081671540943E-006  9.932831290244321E-003
  0.000000000000000E+000  1.017918427304692E-003  1.929221599730542E-003
 -2.966477402997226E-008  1.578812853167342E-003  2.150416729655887E-007
  1.101691663788174E-003  8.153203473482151E-004   1.00000000000000     
  7.516946244701839E-008  2.433704939774748E-004  5.327391273102267E-004
 -3.912245512876945E-009  9.551957953452217E-005  2.326726969319355E-006
  1.520758417388647E-003  2.995085582797245E-003 -2.419744726406031E-008
 -4.392547611739965E-004  1.228598050913593E-003  4.848649226221810E-002
  6.963095834205414E-002 -8.686117617384726E-007 -2.274227558349934E-002
  2.966675490095414E-002  0.318339621325912       0.345397831482848     
 -7.468897530963718E-006  7.078389128789077E-002  1.017918427304692E-003
  4.352093271741502E-002  5.147834902548223E-002 -7.915594514856485E-007
  4.212822369012336E-002  1.625921744314033E-004  3.216175308798225E-002
  2.630314007031052E-002  0.248362398964366        1.00000000000000     
 -3.073610984774522E-007 -5.327391273102267E-004 -1.102141046487374E-003
  8.667902279552526E-009 -2.116314987042649E-004 -8.365323148972042E-006
 -2.995085582797245E-003 -5.557153291134279E-003  4.898540052683351E-008
  8.892289411613027E-004 -2.806786097990160E-003 -6.963095834205414E-002
 -8.975970293194895E-002  1.366733079008667E-006  3.578424988131606E-002
 -4.846834958792785E-002 -0.345397831482848      -0.299996853748261     
  1.034564575220337E-005 -9.804727688271050E-002 -1.929221599730542E-003
 -5.147834902548223E-002 -4.892157655368724E-002  1.022601484561760E-006
 -5.442469798903175E-002 -3.216245941875590E-004 -3.482962352053773E-002
 -1.809283852578187E-002  0.000000000000000E+000  0.000000000000000E+000
   1.00000000000000       2.257149919553616E-012  3.912245512876947E-009
  8.667902279552529E-009  7.818638454196592E-005  1.554145995188085E-009
  6.758386702093008E-011  2.419744726406031E-008  4.898540052683351E-008
  5.061088899885669E-004 -7.184125399625825E-009  3.501326817048607E-008
  8.686117617384726E-007  1.366733079008666E-006  1.980240325445576E-002
 -4.463908162689625E-007  1.048081671540943E-006  7.468897530963713E-006
  1.034564575220336E-005  0.178435684871506       2.120178523076097E-006
  2.966477402997226E-008  7.915594514856485E-007  1.022601484561760E-006
  1.758238095070300E-002  8.368641361467299E-007  8.194592055235911E-010
  2.907544259213686E-007  1.591352640711147E-007  0.000000000000000E+000
  0.000000000000000E+000  0.000000000000000E+000   1.00000000000000     
 -5.510952994961576E-008 -9.551957953452217E-005 -2.116314987042649E-004
  1.554145995188084E-009  4.024107378424951E-005  1.226845751270062E-006
  4.392547611739963E-004  8.892289411613025E-004 -7.184125399625823E-009
  3.756959070551393E-004  9.167287721483904E-004  2.274227558349935E-002
  3.578424988131607E-002 -4.463908162689626E-007  8.114853771584102E-003
 -9.932831290244323E-003 -7.078389128789078E-002 -9.804727688271050E-002
  2.120178523076099E-006  0.158342426958237      -1.578812853167342E-003
 -4.212822369012336E-002 -5.442469798903175E-002  8.368641361467299E-007
 -2.695703986881322E-002  1.017222601848703E-004  3.144480681724841E-002
 -3.465563544558396E-002  0.000000000000000E+000  0.000000000000000E+000
  0.000000000000000E+000  0.000000000000000E+000   1.00000000000000     
  0.000000000000000E+000  0.000000000000000E+000  0.000000000000000E+000
  0.000000000000000E+000  0.000000000000000E+000  0.000000000000000E+000
  6.949988578526328E-010  3.131124433313341E-009  1.396855184320931E-013
 -9.503899070062477E-010  0.000000000000000E+000  2.685860380659076E-006
  8.693859811273445E-006  5.475366658990118E-010 -4.294934063383558E-006
  0.000000000000000E+000  1.118196522894133E-003  2.636574474990704E-003
  2.267826518482325E-007 -6.396549852617368E-004  0.000000000000000E+000
  1.112841487108132E-004  3.175688127767642E-004  2.264785089543294E-008
  7.702692270755909E-005  0.000000000000000E+000  5.256625123094102E-006
  8.271222306873974E-004  1.872514966302766E-006  4.178468339987780E-002
  5.171874087127509E-002  1.251679514954581E-005 -4.609393599341043E-002
   1.00000000000000       0.000000000000000E+000  6.298098582863222E-006
  1.677694333797161E-005  6.712086565689192E-010 -4.024445496828828E-007
  6.949988578526279E-010  2.263010707837301E-005  5.446764165342319E-005
  2.429906867061421E-009 -1.653255818743315E-005  2.685860380659077E-006
  1.642758165234279E-003  2.917104566970218E-003  1.837183648402652E-007
 -1.441105796862045E-003  1.118196522894133E-003  4.593187659530121E-002
  6.783291469392731E-002  5.834588942130306E-006 -1.645683156701186E-002
  1.112841487108132E-004  1.250750176295687E-002  2.082316649100285E-002
  1.485032380023162E-006  5.050698844777959E-003  1.586960243163428E-006
  1.108205362760272E-003  2.655558885746397E-002  4.178468339987780E-002
  0.387693336661811       0.301688404055015       7.301360955303813E-005
 -0.268877504598908       0.248362398964366        1.00000000000000     
  0.000000000000000E+000 -1.677694333797161E-005 -4.279736422971480E-005
 -1.791514077797136E-009  1.074159382829091E-006 -3.131124433313341E-009
 -5.446764165342319E-005 -1.244449612648985E-004 -5.870540625688020E-009
  3.994188246533490E-005 -8.693859811273445E-006 -2.917104566970216E-003
 -4.781384611933306E-003 -3.356382583731226E-007  2.632781106073608E-003
 -2.636574474990704E-003 -6.783291469392733E-002 -9.092608648379810E-002
 -9.425630540983933E-006  2.658559424911603E-002 -3.175688127767642E-004
 -2.082316649100285E-002 -3.224122577225060E-002 -2.625398760126978E-006
 -8.929164551043658E-003 -3.765273396355420E-006 -1.530540261203022E-003
 -3.249545841228538E-002 -5.171874087127509E-002 -0.301688404055015     
 -8.075652153640980E-002 -7.547805402652374E-005  0.277952986338680     
  0.000000000000000E+000  0.000000000000000E+000   1.00000000000000     
  0.000000000000000E+000 -6.712086565689192E-010 -1.791514077797136E-009
  1.981751519347835E-006  4.297475778306960E-011 -1.396855184320931E-013
 -2.429906867061421E-009 -5.870540625688019E-009  7.146297153225946E-006
  1.781884648199702E-009 -5.475366658990118E-010 -1.837183648402652E-007
 -3.356382583731227E-007  5.479241554179104E-004  1.658117591213268E-007
 -2.267826518482325E-007 -5.834588942130306E-006 -9.425630540983930E-006
  1.865626696632786E-002  2.286736681237465E-006 -2.264785089543294E-008
 -1.485032380023162E-006 -2.625398760126978E-006  4.572190517362889E-003
 -6.367954888409577E-007 -1.600035315800676E-010 -1.152296166193173E-007
 -3.279738076949137E-006 -1.251679514954581E-005 -7.301360955303813E-005
 -7.547805402652376E-005  0.231114819520405       6.726924384847240E-005
  0.000000000000000E+000  0.000000000000000E+000  0.000000000000000E+000
   1.00000000000000       0.000000000000000E+000  4.024445496828829E-007
  1.074159382829091E-006  4.297475778306962E-011  1.955984704861901E-006
  9.503899070062477E-010  1.653255818743315E-005  3.994188246533490E-005
  1.781884648199703E-009 -4.977258441683812E-006  4.294934063383558E-006
  1.441105796862045E-003  2.632781106073609E-003  1.658117591213268E-007
 -7.527203587104612E-004  6.396549852617369E-004  1.645683156701186E-002
  2.658559424911602E-002  2.286736681237465E-006  1.220638060001033E-002
 -7.702692270755910E-005 -5.050698844777958E-003 -8.929164551043657E-003
 -6.367954888409577E-007  2.406404770825626E-003  1.589585977080021E-006
  1.375880811285199E-003 -2.234311954314049E-002  4.609393599341043E-002
  0.268877504598908       0.277952986338680       6.726924384847240E-005
 -1.660865558540276E-002  0.000000000000000E+000  0.000000000000000E+000
  0.000000000000000E+000  0.000000000000000E+000   1.00000000000000     
  6.740619895883657E-009  2.093093541034829E-005  4.691800456358366E-005
  4.788722184846774E-009 -1.107619092634939E-005  7.305767030409142E-009
  2.195537627543552E-005  4.420276456770002E-005  5.034427038368244E-009
 -2.432208546002776E-005  2.078692908577317E-006  6.328222698874980E-004
  9.229038978414261E-004  1.504201875553237E-007 -7.908048400197834E-004
  7.000469116714395E-004  2.377560206839063E-002  2.874919154329354E-002
  6.563999745554115E-006 -2.109012817198274E-002  7.112671677161447E-004
  2.402690874218293E-002  3.571084669828278E-002  6.651982777350832E-006
 -4.546678805651620E-003  1.189134587295903E-006  2.210046527193832E-004
  8.573746897020158E-002  5.380882536759333E-003  9.675963408549115E-002
  4.844314218904724E-002  3.226019757480282E-005 -0.115141124221221     
  6.051200532709468E-002  0.483696909999909      -7.316602863949480E-002
  1.313655448123724E-004 -0.457200005721510        1.00000000000000     
  6.122240150870155E-008  7.693252611483097E-005  1.538871815077175E-004
 -1.049792969226146E-008  6.249568952313122E-005  5.282354339536934E-006
  1.111488970000470E-003  2.046653036140117E-003 -1.572564903102137E-007
  2.653595093040522E-004  1.300358679553091E-003  3.596286028113244E-002
  5.158974058028404E-002 -6.031291746508040E-006  5.754029436274816E-003
  4.849968686511379E-003  8.980925672820519E-002  9.116978313895932E-002
 -1.656353331298100E-005  7.341557363500337E-002  6.122588632738498E-005
  4.998816527574831E-003  5.372250773869539E-003 -7.442760274143696E-007
  6.500451352848479E-003  2.348911233404655E-004  6.161886603676558E-002
  2.332780351068338E-003  5.985758552941773E-002  0.481036661262794     
  0.103031947396473      -1.165034326132375E-004  0.449737631729652     
  5.893176376344016E-003  0.103311588363994      -4.760650765078409E-002
 -3.266195984749113E-005  0.123374701117213       1.397509377036722E-002
   1.00000000000000       0.000000000000000E+000  2.661465009709783E-007
  7.323467778395129E-007  1.479715907050127E-011  2.263950332461733E-008
  0.000000000000000E+000  1.576553529212120E-006  3.987435844219878E-006
  8.853176685580661E-011 -7.711496332259258E-007  2.553457592813508E-007
  1.801428462960644E-004  3.555164515855258E-004  1.040355277289710E-008
 -1.083138800958115E-004  5.474165480977287E-005  4.662070046879508E-003
  7.877900805919430E-003  2.875883608597699E-007 -6.158715459729325E-004
  2.960426395764152E-006  7.831558236439794E-004  1.437497397178073E-003
  4.605798107778213E-008  3.732867021131333E-004  1.469591329658510E-007
  2.394312957840537E-004  2.448018555777810E-003  5.590079672454307E-003
  9.945247583441333E-002  0.123225580167474       9.583568634719467E-006
 -3.439972450857504E-002  6.050107790124894E-002  0.483652675807580     
  0.442416303052540      -3.535689345858077E-005  0.136484298956513     
  0.146534031321315       5.351205755787358E-002   1.00000000000000     
  1.468454006172757E-007  2.966675437715833E-002 -4.846834876682644E-002
 -1.047934283702637E-006 -9.932831129840745E-003  0.000000000000000E+000
  1.017918386917772E-003 -1.929221531771727E-003 -2.966256164221462E-008
 -1.578812795404637E-003  0.000000000000000E+000  1.978405721174434E-006
 -6.346016784552928E-006 -5.620630838499718E-011 -3.487334722748307E-006
  0.000000000000000E+000  7.516945890721739E-008 -3.073610844927647E-007
 -2.258428665103856E-012 -5.510952747179867E-008  0.000000000000000E+000
  2.326726859947320E-006 -8.365322775390595E-006 -6.761869793609211E-011
  1.226845682271351E-006  8.153204032712209E-004  1.638614008094822E-007
  2.150416850807839E-007  0.000000000000000E+000  0.000000000000000E+000
  0.000000000000000E+000  0.000000000000000E+000  0.000000000000000E+000
  0.000000000000000E+000  0.000000000000000E+000  0.000000000000000E+000
  0.000000000000000E+000  0.000000000000000E+000  0.000000000000000E+000
  0.000000000000000E+000  0.000000000000000E+000   1.00000000000000     
  2.966675437715833E-002  0.318339618036837      -0.345397828891178     
 -7.467847278083002E-006 -7.078389081284017E-002  1.017918386917772E-003
  4.352093172738215E-002 -5.147834800674948E-002 -7.915004294956521E-007
 -4.212822279912516E-002  1.978405721174433E-006  1.393881843518878E-003
 -2.445287529192421E-003 -2.165777205164760E-008 -1.343761984433027E-003
  7.516945890721739E-008  2.433704878895547E-004 -5.327391147288374E-004
 -3.914462007157516E-009 -9.551957733003666E-005  2.326726859947320E-006
  1.520758378971445E-003 -2.995085512755253E-003 -2.420991849538128E-008
  4.392547458141192E-004  2.630314126912979E-002  1.382625816331200E-004
  1.625921798959908E-004  0.000000000000000E+000  5.394304107358862E-007
 -1.556863283455932E-006 -1.817389984602366E-015 -2.892645159499534E-007
  0.000000000000000E+000  5.418577964343019E-009 -1.835679624086505E-008
 -6.615715544005950E-013 -4.665865561049105E-010  6.994290320988494E-008
  2.457860229609452E-007  0.000000000000000E+000  0.248362398964366     
   1.00000000000000       4.846834876682646E-002  0.345397828891178     
 -0.299996852985085      -1.034419098978304E-005 -9.804727631708127E-002
  1.929221531771727E-003  5.147834800674948E-002 -4.892157583070421E-002
 -1.022525237472664E-006 -5.442469696374737E-002  6.346016784552928E-006
  2.445287529192421E-003 -3.942283524147544E-003 -3.901526258993623E-008
 -2.420711906839005E-003  3.073610844927647E-007  5.327391147288374E-004
 -1.102141022074445E-003 -8.672813116150024E-009 -2.116314940858521E-004
  8.365322775390595E-006  2.995085512755253E-003 -5.557153172092450E-003
 -4.901064741065961E-008  8.892289114753446E-004  1.809283919273769E-002
  2.294110865935461E-004  3.216246039860612E-004  0.000000000000000E+000
  1.556863283455932E-006 -4.315384642924139E-006 -5.234890028772146E-015
 -8.332102317353344E-007  0.000000000000000E+000  1.835679624086505E-008
 -6.048992976893124E-008 -2.241240100779199E-012 -1.580679358220376E-009
  1.993326944064511E-007  6.389955054639726E-007  0.000000000000000E+000
  0.000000000000000E+000  0.000000000000000E+000   1.00000000000000     
  1.047934283702638E-006  7.467847278083007E-006 -1.034419098978303E-005
  0.178435682495702      -2.119880393917176E-006  2.966256164221462E-008
  7.915004294956521E-007 -1.022525237472664E-006  1.758238051130222E-002
 -8.368017368453391E-007  5.620630838499719E-011  2.165777205164760E-008
 -3.901526258993623E-008  4.627649187091113E-004 -2.144010716741477E-008
  2.258428665103856E-012  3.914462007157514E-009 -8.672813116150022E-009
  7.818638256219361E-005 -1.555026503992884E-009  6.761869793609211E-011
  2.420991849538128E-008 -4.901064741065960E-008  5.061088768415779E-004
  7.187827986503937E-009  1.589008993556747E-007  1.026178697154809E-009
  8.216374763232487E-010  0.000000000000000E+000  1.817389984602366E-015
 -5.234890028772146E-015  1.690728195770081E-007 -9.726402737577789E-016
  0.000000000000000E+000  6.615715544005950E-013 -2.241240100779199E-012
  1.698336231559346E-009 -5.696704840569224E-014  1.679324996831913E-011
 -2.963104974021340E-011  0.000000000000000E+000  0.000000000000000E+000
  0.000000000000000E+000  0.000000000000000E+000   1.00000000000000     
  9.932831129840745E-003  7.078389081284014E-002 -9.804727631708117E-002
 -2.119880393917174E-006  0.158342424682370       1.578812795404637E-003
  4.212822279912516E-002 -5.442469696374737E-002 -8.368017368453391E-007
 -2.695703940857697E-002  3.487334722748307E-006  1.343761984433027E-003
 -2.420711906839005E-003 -2.144010716741477E-008 -8.674919921842851E-004
  5.510952747179866E-008  9.551957733003663E-005 -2.116314940858521E-004
 -1.555026503992885E-009  4.024107261222930E-005 -1.226845682271351E-006
 -4.392547458141190E-004  8.892289114753442E-004  7.187827986503934E-009
  3.756958997727516E-004  3.465563692697935E-002  1.763907595105428E-004
 -1.017222647507531E-004  0.000000000000000E+000  2.892645159499534E-007
 -8.332102317353344E-007 -9.726402737577789E-016  1.426272357907518E-008
  0.000000000000000E+000  4.665865561049103E-010 -1.580679358220375E-009
 -5.696704840569220E-014  1.658159163314963E-009 -2.758611025131344E-008
  2.282434920063435E-007  0.000000000000000E+000  0.000000000000000E+000
  0.000000000000000E+000  0.000000000000000E+000  0.000000000000000E+000
   1.00000000000000       4.849968633887849E-003  8.980925603050906E-002
 -9.116978246528139E-002 -1.656472974933311E-005 -7.341557320499568E-002
  6.122588422476024E-005  4.998816420526634E-003 -5.372250663967520E-003
 -7.443351827931269E-007 -6.500451225182700E-003  2.547127179137737E-007
  1.798761606749798E-004 -2.884608797729018E-004 -2.460789223664282E-008
 -2.335120898859023E-004  6.122240026653427E-008  7.693252518632270E-005
 -1.538871797114447E-004 -1.049944391112066E-008 -6.249568889507551E-005
  5.282354210084062E-006  1.111488953495031E-003 -2.046653007155045E-003
 -1.572781485164376E-007 -2.653595090063594E-004  2.332780469386871E-003
  1.333559783416481E-005  2.348911366484959E-004  0.000000000000000E+000
  2.457860269153856E-007 -6.389955152528734E-007 -2.963533674068876E-011
 -2.282434959200069E-007  0.000000000000000E+000  7.585462228682526E-009
 -2.299461800254897E-008 -1.712809434311921E-012 -4.088808004317115E-009
  1.324359324181688E-007  5.926054143712293E-008  0.000000000000000E+000
  5.985758536788464E-002  0.481036660603336      -0.103031945239236     
 -1.165146607702104E-004 -0.449737631805098        1.00000000000000     
  0.000000000000000E+000  1.118196509741379E-003 -2.636574446924310E-003
  2.268057995265302E-007  6.396549791404052E-004  0.000000000000000E+000
  1.112841460031127E-004 -3.175688055582701E-004  2.264992072357562E-008
 -7.702692105815371E-005  0.000000000000000E+000  3.562867842791468E-008
 -1.462697050101639E-007  7.154945349916263E-012 -3.185193516203359E-008
  0.000000000000000E+000  0.000000000000000E+000  0.000000000000000E+000
  0.000000000000000E+000  0.000000000000000E+000  0.000000000000000E+000
  6.949988369661744E-010 -3.131124342371462E-009  1.396865030593394E-013
  9.503898770533826E-010  8.271223030577243E-004  1.385258933120453E-008
  0.000000000000000E+000  0.000000000000000E+000  0.000000000000000E+000
  0.000000000000000E+000  0.000000000000000E+000  0.000000000000000E+000
  0.000000000000000E+000  0.000000000000000E+000  0.000000000000000E+000
  0.000000000000000E+000  0.000000000000000E+000  0.000000000000000E+000
  0.000000000000000E+000  0.000000000000000E+000  1.872515001210644E-006
  4.178468350775216E-002 -5.171874083625089E-002  1.251767956277353E-005
  4.609393630312597E-002  5.893176300949918E-003   1.00000000000000     
  1.118196509741379E-003  4.593187628499809E-002 -6.783291428094906E-002
  5.835184504519663E-006  1.645683148451563E-002  1.112841460031128E-004
  1.250750159414161E-002 -2.082316623104619E-002  1.485168115041741E-006
 -5.050698788377380E-003  3.562867842791474E-008  1.637383868643955E-004
 -3.637522274328553E-004  1.779334488991785E-008 -7.921129233446876E-005
  0.000000000000000E+000  6.298098507042641E-006 -1.677694314457921E-005
  6.712065751679903E-010  4.024445490154837E-007  6.949988369661719E-010
  2.263010671588613E-005 -5.446764083359235E-005  2.429924029198446E-009
  1.653255789772287E-005  2.655559040216900E-002  3.210046196867079E-005
  1.586960315285996E-006  0.000000000000000E+000  5.418578087138566E-009
 -1.835679664570997E-008  6.615818358427031E-013 -4.665865586019903E-010
  0.000000000000000E+000  0.000000000000000E+000  0.000000000000000E+000
  0.000000000000000E+000  0.000000000000000E+000  0.000000000000000E+000
  7.585462241913314E-009  0.000000000000000E+000  4.178468350775216E-002
  0.387693337226283      -0.301688403354692       7.301876843745207E-005
  0.268877505963484       0.103311587410075       0.248362398964366     
   1.00000000000000       2.636574446924310E-003  6.783291428094906E-002
 -9.092608600674093E-002  9.426592661348540E-006  2.658559412831362E-002
  3.175688055582701E-004  2.082316623104619E-002 -3.224122540615609E-002
  2.625638728964559E-006 -8.929164458075720E-003  1.462697050101639E-007
  3.637522274328552E-004 -7.638361696494366E-004  3.992574243862011E-008
 -1.777389060652802E-004  0.000000000000000E+000  1.677694314457921E-005
 -4.279736375980219E-005  1.791508523252379E-009  1.074159381584202E-006
  3.131124342371462E-009  5.446764083359235E-005 -1.244449595223207E-004
  5.870582094099262E-009  3.994188180280137E-005  3.249546016388884E-002
  6.683913943960234E-005  3.765273554093862E-006  0.000000000000000E+000
  1.835679664570997E-008 -6.048993106416422E-008  2.241274930389208E-012
 -1.580679365719242E-009  0.000000000000000E+000  0.000000000000000E+000
  0.000000000000000E+000  0.000000000000000E+000  0.000000000000000E+000
  0.000000000000000E+000  2.299461804452775E-008  0.000000000000000E+000
  5.171874083625086E-002  0.301688403354691      -8.075651928513097E-002
  7.548338677921329E-005  0.277952986789380       4.760650719010627E-002
  0.000000000000000E+000  0.000000000000000E+000   1.00000000000000     
 -2.268057995265302E-007 -5.835184504519663E-006  9.426592661348540E-006
  1.865626682745572E-002 -2.286970102131578E-006 -2.264992072357562E-008
 -1.485168115041741E-006  2.625638728964559E-006  4.572190451644349E-003
  6.368536945801327E-007 -7.154945349916263E-012 -1.779334488991785E-008
  3.992574243862012E-008  5.237223855362472E-005  8.694296329937991E-009
  0.000000000000000E+000 -6.712065751679902E-010  1.791508523252378E-009
  1.981751495443385E-006 -4.297462496501665E-011 -1.396865030593394E-013
 -2.429924029198446E-009  5.870582094099262E-009  7.146297038320762E-006
 -1.781897230697994E-009 -3.280218160122451E-006 -3.190331791850251E-009
 -1.599945926443314E-010  0.000000000000000E+000 -6.615818358427031E-013
  2.241274930389208E-012  1.698336270044451E-009  5.696793274090172E-014
  0.000000000000000E+000  0.000000000000000E+000  0.000000000000000E+000
  0.000000000000000E+000  0.000000000000000E+000  0.000000000000000E+000
 -1.712733842354414E-012  0.000000000000000E+000 -1.251767956277353E-005
 -7.301876843745207E-005  7.548338677921339E-005  0.231114819968066     
 -6.727399712149489E-005 -3.266471515963654E-005  0.000000000000000E+000
  0.000000000000000E+000  0.000000000000000E+000   1.00000000000000     
 -6.396549791404050E-004 -1.645683148451562E-002  2.658559412831362E-002
 -2.286970102131577E-006  1.220638048367593E-002  7.702692105815373E-005
  5.050698788377380E-003 -8.929164458075720E-003  6.368536945801328E-007
  2.406404724838255E-003  3.185193516203359E-008  7.921129233446876E-005
 -1.777389060652803E-004  8.694296329937993E-009  1.366751958463389E-005
  0.000000000000000E+000 -4.024445490154835E-007  1.074159381584202E-006
 -4.297462496501663E-011  1.955984680732579E-006 -9.503898770533824E-010
 -1.653255789772286E-005  3.994188180280136E-005 -1.781897230697993E-009
 -4.977258325518122E-006  2.234312068003298E-002  2.789247251731845E-005
 -1.589586062067546E-006  0.000000000000000E+000  4.665865586019899E-010
 -1.580679365719241E-009  5.696793274090167E-014  1.658159202283029E-009
  0.000000000000000E+000  0.000000000000000E+000  0.000000000000000E+000
  0.000000000000000E+000  0.000000000000000E+000  0.000000000000000E+000
  4.088807994316790E-009  0.000000000000000E+000 -4.609393630312596E-002
 -0.268877505963484       0.277952986789380      -6.727399712149487E-005
 -1.660865736911312E-002 -0.123374700157597       0.000000000000000E+000
  0.000000000000000E+000  0.000000000000000E+000  0.000000000000000E+000
   1.00000000000000       7.000469264272396E-004  2.377560239969117E-002
 -2.874919186233485E-002  6.564609478517115E-006  2.109012850335507E-002
  7.112671842824824E-004  2.402690911233051E-002 -3.571084720208242E-002
  6.652571983356249E-006  4.546678853600602E-003  2.566433473542241E-006
  7.185160276319270E-004 -1.368933943022355E-003  1.712397936774880E-007
  4.285418204139463E-005  6.740620239254903E-009  2.093093604313373E-005
 -4.691800590776022E-005  4.788962997307349E-009  1.107619127462376E-005
  7.305767343622450E-009  2.195537683409927E-005 -4.420276563242942E-005
  5.034700441059819E-009  2.432208606115784E-005  8.573747414345906E-002
  2.714277120459754E-004  1.189134662447569E-006  0.000000000000000E+000
  6.994290808424253E-008 -1.993327078227507E-007  1.679418138343678E-011
  2.758611226329869E-008  0.000000000000000E+000  0.000000000000000E+000
  0.000000000000000E+000  0.000000000000000E+000  0.000000000000000E+000
  8.199837142014881E-010  1.324359385596938E-007  0.000000000000000E+000
  5.380882582804938E-003  9.675963468093524E-002 -4.844314161117352E-002
  3.226276575341078E-005  0.115141125189857       1.397509367762013E-002
  6.051200506834159E-002  0.483696908952552       7.316603331126495E-002
  1.313769211167753E-004  0.457200004323807        1.00000000000000     
  5.474165342329893E-005  4.662069973383288E-003 -7.877900688273544E-003
  2.876167129314822E-007  6.158715595643567E-004  2.960426318963027E-006
  7.831558113835435E-004 -1.437497376801025E-003  4.606171364091918E-008
 -3.732866936029465E-004  8.046519919319093E-010  6.791677441589534E-006
 -1.602806569570372E-005  3.845468968936653E-010 -3.771630162431076E-006
  0.000000000000000E+000  2.661464951369984E-007 -7.323467623889771E-007
  1.479604515076385E-011 -2.263950160768262E-008  0.000000000000000E+000
  1.576553473783156E-006 -3.987435708860090E-006  8.852663708602675E-011
  7.711496109609113E-007  2.448018731731264E-003  1.394770075442076E-006
  1.469591381101043E-007  0.000000000000000E+000  0.000000000000000E+000
  0.000000000000000E+000  0.000000000000000E+000  0.000000000000000E+000
  0.000000000000000E+000  0.000000000000000E+000  0.000000000000000E+000
  0.000000000000000E+000  0.000000000000000E+000  0.000000000000000E+000
  0.000000000000000E+000  0.000000000000000E+000  5.590079647548118E-003
  9.945247551526926E-002 -0.123225579626623       9.584061064491049E-006
  3.439972511772889E-002  5.351205635667586E-002  6.050107794722955E-002
  0.483652675993723      -0.442416304353513      -3.536069112154202E-005
 -0.136484295123510       0.146534030794065        1.00000000000000     
  4.902247329751646E-007  3.480943963435199E-002  3.770533128318182E-002
 -7.075216656205929E-008 -4.376986411301528E-002  0.000000000000000E+000
  1.640184797821963E-003  6.380001659980550E-004 -1.061100239486677E-009
 -3.770741809876713E-003  0.000000000000000E+000  3.752374098027814E-004
 -3.500122280367796E-004 -1.104979502220441E-012 -9.425624414023516E-004
  0.000000000000000E+000  1.519813420963963E-003 -2.771691979747402E-003
 -2.552907537907364E-009 -2.254247010983156E-003  7.414864376890370E-007
  3.680684292618605E-002 -6.023067759384133E-002 -2.983580803351457E-008
 -9.888708091703127E-003  7.798532811096474E-005  1.045505813344761E-005
  5.170159803972006E-003  0.000000000000000E+000  1.978405786015853E-006
 -6.346016985838025E-006  5.618783071212096E-011 -3.487334827498050E-006
  0.000000000000000E+000  3.562867841553049E-008 -1.462697049764760E-007
 -7.154697256158246E-012 -3.185193508035033E-008  2.566433319770226E-006
  2.547127231467269E-007  8.046519935639228E-010  0.000000000000000E+000
  1.228598042230909E-003  2.806786082346750E-003  3.501753815786442E-008
 -9.167287596837393E-004  1.300358680603885E-003  0.000000000000000E+000
  2.685860402259828E-006  8.693859879908179E-006 -5.475714418900100E-010
 -4.294934092534201E-006  2.078693017929045E-006  2.553457537201978E-007
   1.00000000000000       3.480943963435199E-002  0.349327992505156     
  0.245799134682710      -4.612297711235930E-007 -0.285333515394884     
  1.640184797821962E-003  5.728203727961094E-002  1.416903201856725E-002
 -2.356545353664068E-008 -8.374255099810775E-002  3.752374098027817E-004
  2.467842602799280E-002 -1.388486374799355E-002 -4.383415379157434E-011
 -3.739112529369282E-002  1.519813420963961E-003  5.481260987504727E-002
 -6.336977062587897E-002 -5.836765639485329E-008 -5.153931860534322E-002
  3.680684292618605E-002  0.360714013664120      -0.379947201297513     
 -1.882102644972200E-007 -6.237995509907478E-002  5.814675147259068E-003
  1.683003716107354E-003  9.402163633258481E-002  1.978405786015851E-006
  1.393881868049878E-003 -2.445287570417874E-003  2.165065179556075E-008
 -1.343762004828646E-003  3.562867841553050E-008  1.637383868342038E-004
 -3.637522274079371E-004 -1.779272791844063E-008 -7.921129214415119E-005
  7.185160016761195E-004  1.798761628805971E-004  6.791677449812117E-006
  1.228598042230909E-003  4.848649206506556E-002  6.963095814378351E-002
  8.687176942711419E-007 -2.274227533627023E-002  3.596286030077544E-002
  2.685860402259833E-006  1.642758172339666E-003  2.917104579400582E-003
 -1.837300327760974E-007 -1.441105801406995E-003  6.328222899330862E-004
  1.801428439544430E-004  0.248362398964366        1.00000000000000     
 -3.770533128318182E-002 -0.245799134682710      -2.343024797051477E-002
  4.217499749230593E-007  0.260909877238289      -6.380001659980548E-004
 -1.416903201856724E-002  1.995020870428353E-002  6.420979181308790E-009
  2.281768843160535E-002  3.500122280367796E-004  1.388486374799355E-002
  1.064455575128972E-003 -2.655721988740669E-011 -2.265366729750852E-002
  2.771691979747401E-003  6.336977062587897E-002 -5.790752681355797E-002
 -7.422260102393352E-008 -6.553941888657183E-002  6.023067759384133E-002
  0.379947201297513      -0.313492062071818      -2.593166142782773E-007
 -8.594727178316025E-002 -3.089897489522504E-003  1.059493265175147E-003
  0.116552677765069       6.346016985838025E-006  2.445287570417875E-003
 -3.942283587658864E-003  3.900243582648942E-008 -2.420711942268185E-003
  1.462697049764759E-007  3.637522274079371E-004 -7.638361696971445E-004
 -3.992435804671703E-008 -1.777389056586752E-004  1.368933896494523E-003
  2.884608834366723E-004  1.602806570923377E-005 -2.806786082346750E-003
 -6.963095814378351E-002 -8.975970282873323E-002 -1.366899761988492E-006
  3.578424953149614E-002 -5.158974058956967E-002 -8.693859879908179E-006
 -2.917104579400582E-003 -4.781384632135158E-003  3.356595747226095E-007
  2.632781114343152E-003 -9.229039241810327E-004 -3.555164470720047E-004
  0.000000000000000E+000  0.000000000000000E+000   1.00000000000000     
  7.075216656205929E-008  4.612297711235930E-007  4.217499749230594E-007
  0.201329265353267      -4.895843230605382E-007  1.061100239486665E-009
  2.356545353664007E-008  6.420979181308631E-009  2.381090501843712E-002
 -3.794960557954181E-008  1.104979502217756E-012  4.383415379133998E-011
 -2.655721988726326E-011  9.476694611736426E-003 -7.151703857377112E-011
  2.552907537907364E-009  5.836765639485329E-008 -7.422260102393352E-008
  2.267595884706461E-002 -6.036604273785350E-008  2.983580803351490E-008
  1.882102644972254E-007 -2.593166142782841E-007  0.210000225174871     
 -4.257475433397631E-008 -5.205027815281991E-008 -1.017314554569023E-008
 -1.036226900679175E-006 -5.618783071212097E-011 -2.165065179556076E-008
  3.900243582648944E-008  4.627649270751761E-004  2.143305842365515E-008
  7.154697256158246E-012  1.779272791844064E-008 -3.992435804671704E-008
  5.237223854400584E-005 -8.693994842152800E-009  1.712285791190791E-007
 -2.460496778384303E-008  3.845515855506128E-010 -3.501753815786444E-008
 -8.687176942711423E-007 -1.366899761988492E-006  1.980240316567601E-002
  4.464452532741696E-007 -6.031887960772781E-006  5.475714418900100E-010
  1.837300327760974E-007  3.356595747226095E-007  5.479241578543953E-004
 -1.658222896245818E-007  1.504318045213326E-007  1.040391899966895E-008
  0.000000000000000E+000  0.000000000000000E+000  0.000000000000000E+000
   1.00000000000000       4.376986411301528E-002  0.285333515394884     
  0.260909877238289      -4.895843230605383E-007 -0.101545407373117     
  3.770741809876712E-003  8.374255099810775E-002  2.281768843160537E-002
 -3.794960557954278E-008 -0.111047385557697       9.425624414023516E-004
  3.739112529369282E-002 -2.265366729750852E-002 -7.151703857415738E-011
 -5.152830534047240E-002  2.254247010983156E-003  5.153931860534322E-002
 -6.553941888657183E-002 -6.036604273785350E-008 -3.062795811267726E-002
  9.888708091703127E-003  6.237995509907478E-002 -8.594727178316025E-002
 -4.257475433397519E-008  0.195889351515679       9.204420529689152E-003
  2.855937371568655E-003 -3.547324402900562E-002  3.487334827498050E-006
  1.343762004828646E-003 -2.420711942268185E-003  2.143305842365514E-008
 -8.674920010515366E-004  3.185193508035033E-008  7.921129214415121E-005
 -1.777389056586752E-004 -8.693994842152800E-009  1.366751975376537E-005
 -4.285418115498656E-005  2.335120921961872E-004  3.771630188148159E-006
  9.167287596837394E-004  2.274227533627023E-002  3.578424953149616E-002
  4.464452532741695E-007  8.114853890838264E-003 -5.754029583215514E-003
  4.294934092534201E-006  1.441105801406995E-003  2.632781114343152E-003
 -1.658222896245818E-007 -7.527203589162633E-004  7.908048649521969E-004
  1.083138792437327E-004  0.000000000000000E+000  0.000000000000000E+000
  0.000000000000000E+000  0.000000000000000E+000   1.00000000000000     
  4.956376315913226E-003  9.121634736483795E-002  2.980856932811122E-002
 -8.018232549827546E-007 -0.114848984947672       7.932693777986583E-005
  5.877121819121959E-003  7.049501323008026E-005 -3.903159175639382E-008
 -9.806052498750500E-003  1.045505813526854E-005  1.683003716286032E-003
 -1.059493224958533E-003 -1.013773720758301E-008 -2.855937386811754E-003
  7.449224548248821E-005  5.650262086765682E-003 -6.269350072186889E-003
 -4.041465089848922E-008 -7.075184483812114E-003  5.128255824909330E-003
  9.347399745983040E-002 -9.868048223219758E-002 -7.648638072092276E-007
 -7.038897737787383E-002  6.656500471118063E-004  9.892702273332639E-005
  4.983710351184591E-002  1.638614328153897E-007  1.382625977319320E-004
 -2.294111101902873E-004  1.028735461925464E-009 -1.763907811176025E-004
  1.385259272888529E-008  3.210046664475020E-005 -6.683914850811454E-005
 -3.189503081787085E-009 -2.789247684149986E-005  2.714277400912107E-004
  1.333559910064992E-005  1.394770288716711E-006  1.101691487232157E-003
  3.216174962601660E-002  3.482962043591644E-002  2.917122070740958E-007
 -3.144480340987703E-002  6.161886020406247E-002  5.256623887869266E-006
  1.108205204969902E-003  1.530540063864557E-003 -1.152103128393111E-007
 -1.375880619165089E-003  2.210046284425893E-004  2.394312540035777E-004
  6.010962745897180E-002  0.482063921388844      -0.160346300883755     
 -5.456818594037140E-006 -0.433302177102955        1.00000000000000     
 
          -----------------
          -T+V integrals
          -----------------

 1e-integrals will be neglected if expon. factor < 0.556994E-10
       ----------------------
            T+V(CAO)     
       ----------------------
  0.000000000000000E+000  0.000000000000000E+000  0.000000000000000E+000
 -4.632715754798473E-002 -0.532840566560445       -18.4521707918717     
 -2.657614065365586E-007 -3.481322965719962E-006 -1.511535747966418E-006
  -17.5331393011038      -1.256903548517390E-002 -0.145765523948564     
 -1.738951049337693E-002 -6.055295244990306E-006  -18.2616649255427     
  0.000000000000000E+000  0.000000000000000E+000 -0.667596525670738     
  1.331509838638521E-006  -1.68204047940771       0.000000000000000E+000
  0.000000000000000E+000  0.000000000000000E+000  -2.79200152933636     
  2.082426559060067E-006  -6.56847127706891       0.000000000000000E+000
  0.000000000000000E+000  0.678826449930207        2.47961318404894     
  -2.33046720997949      -3.086628653883404E-007   3.13231977275867     
 -4.788467956644372E-002 -0.556119662009578       -17.6377017956803     
 -1.404116370550763E-006 -8.933076024453013E-006 -3.208250802428908E-006
  -3.48143662421042      -1.076851679846595E-005 -8.307138093203453E-007
 -1.008965314939588E-005  2.861276626756904E-006  -16.8425443671850     
   1.72036304149760        6.82307789001147        3.54206232088620     
 -4.271941600361349E-006   4.90192553069296       8.940518820177590E-002
   1.04432139901771      -0.132035612549164       1.852987529590947E-006
  -17.4831876843884       0.000000000000000E+000  0.000000000000000E+000
 -8.683440690431007E-002  7.893412154578949E-008 -7.053675659563949E-002
  0.000000000000000E+000  0.000000000000000E+000  -1.87081386735780     
  8.994258041908723E-007 -0.303840319861831       0.000000000000000E+000
  0.000000000000000E+000  0.000000000000000E+000  -1.21586830681929     
  7.942574481768984E-007 -0.994742563919086       0.000000000000000E+000
  0.000000000000000E+000  -7.09590783771732       1.240671051400890E-006
 -0.837474222047487       0.000000000000000E+000  0.000000000000000E+000
  8.889658003324424E-002   1.22710815496013        1.11389136914171     
 -9.905520831212532E-007   1.26329583185055        1.87552756702413     
   7.00784398336356        5.78856220775278      -1.895151797684367E-006
   1.20788014300547       2.259530194661511E-002  0.260909447523177     
  -17.5914763680268      -8.178177719982311E-008 -1.420771893104641E-006
 -1.685400227301426E-006 -0.391460559447877      -1.425461544872244E-006
 -9.398507026709488E-007 -5.310435695270401E-006 -6.168334791190003E-006
  -3.52344021415333      -5.710549450921761E-007 -2.737829592890361E-007
 -3.425513810841324E-006  1.830162300489663E-006  -16.7398334666241     
  7.232992439225069E-002  0.994082386908524        1.25078083896388     
 -8.489003945673136E-007  0.597367342547275       0.311168131173375     
   1.47943168154458        1.89308467835841      -2.029223608479219E-007
  -3.38601834184332       0.103420211973120        1.20710941046105     
  7.571192724265086E-002  2.561297376752739E-006  -17.3109997902146     
  0.000000000000000E+000  0.000000000000000E+000 -2.422088330698172E-002
 -1.702713259942328E-010 -4.022387508515553E-003  0.000000000000000E+000
  0.000000000000000E+000 -0.104758597068324      -4.923079566884810E-008
  3.863528681458137E-002  0.000000000000000E+000  0.000000000000000E+000
  -1.20101265328792      -2.273780901227257E-006   1.39642881946122     
  0.000000000000000E+000  0.000000000000000E+000  0.000000000000000E+000
 -0.646458442968253      -6.436241434365454E-008 -0.107431261850347     
  0.000000000000000E+000  0.000000000000000E+000  -1.45803905231358     
 -8.430323263781137E-007  0.535671402575408       0.000000000000000E+000
  0.000000000000000E+000  -4.53629616632047      -9.528022216252866E-006
   5.61425891572180       0.000000000000000E+000  0.000000000000000E+000
  2.422088330012295E-002  0.646458442939674       0.963999622574370     
  1.040201846710801E-007  0.186078025131195       0.102626773241096     
   1.45032038047164        1.80544506766269       1.301422184807662E-006
 -0.818380925752844        1.17458600214286        4.77361873298655     
  0.519114380978377       9.052251629144212E-006  -5.04887699898845     
  4.632715681524269E-002  0.532840558854543       -18.4521708045146     
  2.010238249720566E-011 -5.927116582307605E-008 -9.533176290107802E-008
 -0.137328818918465      -1.581021385933273E-008  4.707601450688568E-008
  5.356505866827472E-007  8.773669727408458E-007 -0.383813786427285     
 -2.446728841457176E-007  2.204352997516675E-006  8.062939766848652E-006
  7.722965488449758E-006  -3.45352655621259      -8.058295261152519E-006
 -2.645040657010356E-007 -3.466857022947354E-006  1.509746124859845E-006
  -17.5331393103005       4.022387507507545E-003  0.107431261891032     
  0.186078025221546       1.730393949899392E-008 -0.123830091894423     
 -3.774534762926077E-002 -0.537190963811416      -0.825641858424841     
 -4.043216027197199E-007 -0.114801918975586       -1.35957980254649     
  -5.22822128799772       -4.58842410329244      -8.733370084006278E-006
   2.04323590281689       1.256903578950566E-002  0.145765526687017     
 -1.738951426668062E-002  6.056909380798019E-006  -18.2616649359811     
  0.000000000000000E+000  0.000000000000000E+000 -0.102626773070691     
  4.618241581123835E-008  3.774534738028566E-002  0.000000000000000E+000
  0.000000000000000E+000 -1.927465386465574E-002 -3.243965118405229E-010
  2.342464945158298E-002  0.000000000000000E+000  0.000000000000000E+000
 -2.002990072603920E-002 -3.481366830205365E-008  0.118578727661784     
  0.000000000000000E+000  0.000000000000000E+000  0.667596531345736     
  1.334287110951851E-006   1.68204049580799       0.000000000000000E+000
  0.000000000000000E+000  0.000000000000000E+000  -1.45032037932488     
  5.229426235201649E-007  0.537190960814617       0.000000000000000E+000
  0.000000000000000E+000 -0.472194705589458      -1.344213298055854E-007
  0.574444574517855       0.000000000000000E+000  0.000000000000000E+000
 -0.287388292119216      -8.544331707119647E-007   1.62174040330579     
  0.000000000000000E+000  0.000000000000000E+000   2.79200153806480     
  2.096626087225988E-006   6.56847130706705       0.000000000000000E+000
  0.000000000000000E+000  0.104758596854047        1.45803905107195     
   1.80544506808803      -8.581164861713363E-007 -0.825641854412700     
  1.927465386192433E-002  0.472194705508008       0.340012381196454     
  1.393716073381957E-007 -0.634662344041086       2.003802827886818E-002
  0.261482321509767      -0.382796840821567       1.607206010316384E-007
 -0.421067899822761      -0.678826455835257       -2.47961319273314     
  -2.33046723597149       3.145672529421331E-007   3.13231978171642     
  4.788467928910268E-002  0.556119659138810       -17.6377017940572     
 -4.831915436106275E-008 -8.303706732559521E-007 -1.282330892171565E-006
 -0.383813785763839       3.972136531269613E-007 -1.308004795188603E-010
 -1.296730343051618E-007 -1.342871271619629E-007 -0.159483093134010     
  1.631693757897265E-007  3.313484129375703E-008  2.667254021194955E-008
 -3.068467489258097E-008 -0.413097455055785      -5.451086379088842E-008
 -1.406892450670900E-006 -8.941015966222805E-006  3.212206891391747E-006
  -3.48143665112602       1.077955740738342E-005 -8.300586709807854E-007
 -1.008189184817300E-005 -2.866542120473522E-006  -16.8425443719446     
 -3.863528654543562E-002 -0.535671399563158      -0.818380921793575     
  2.375695144848118E-007 -0.114801921166370      -2.342464944851743E-002
 -0.574444574554309      -0.634662344199687      -1.695180347002267E-007
  0.592273936618090      -0.118183583323757       -1.62458882684252     
 -0.459603789928626      -1.250415795276130E-006   2.15002621240576     
  -1.72036305857462       -6.82307792227129        3.54206233005197     
  4.289604550080075E-006   4.90192553894750      -8.940518826138456E-002
  -1.04432139945411      -0.132035614522814      -1.851723822764633E-006
  -17.4831876959454       0.000000000000000E+000  0.000000000000000E+000
  7.201683515707143E-002  1.594971991329162E-005  -2.01184604751227     
  0.000000000000000E+000  0.000000000000000E+000   4.29342024953452     
  1.157357936561942E-004  -5.17051200990371       0.000000000000000E+000
  0.000000000000000E+000   1.95683494792370       1.521707394852275E-005
 -0.456774221066629       0.000000000000000E+000  0.000000000000000E+000
  0.155069724518809       9.045698054078468E-007 -8.622641883527304E-002
  0.000000000000000E+000  0.000000000000000E+000  3.633080812480804E-002
  2.375762640028022E-007 -4.440174191707054E-002  0.000000000000000E+000
  0.000000000000000E+000  0.000000000000000E+000 -0.119901568917028     
  6.532067746041619E-007 -0.132911199187557       0.000000000000000E+000
  0.000000000000000E+000  -1.69071294379422       1.131702165898252E-005
  -1.04724791846070       0.000000000000000E+000  0.000000000000000E+000
  -2.36751159294192       8.124453909787616E-005  -6.15579164720845     
  0.000000000000000E+000  0.000000000000000E+000  0.587003453231442     
  1.299966069660183E-005  -1.91226965208931       0.000000000000000E+000
  0.000000000000000E+000  1.401654787863654E-003  6.256942355564866E-007
 -0.189066888570142       0.000000000000000E+000  0.000000000000000E+000
  0.000000000000000E+000  0.000000000000000E+000 -0.155069727823251     
  9.028245066527909E-007  8.622642212365378E-002  0.000000000000000E+000
  0.000000000000000E+000 -3.633080772815896E-002  2.371136050961850E-007
  4.440174217541665E-002  0.000000000000000E+000  0.000000000000000E+000
 -5.978657846629658E-002  8.190998406237509E-007  0.178112183785574     
  0.000000000000000E+000  0.000000000000000E+000 -7.201681163309231E-002
  1.594012026747418E-005   2.01184600190234       0.000000000000000E+000
  0.000000000000000E+000  -4.29342008092126       1.156456136572282E-004
   5.17051213781352       0.000000000000000E+000  0.000000000000000E+000
  0.000000000000000E+000  0.000000000000000E+000  0.000000000000000E+000
 -9.568581926144867E-006  6.973324498337973E-011 -1.713604422015440E-006
  0.000000000000000E+000  0.000000000000000E+000 -2.554321159253120E-004
  2.049893749510842E-009  3.758452018107891E-005  0.000000000000000E+000
  0.000000000000000E+000 -8.359294097655821E-002  1.035905726112433E-006
  2.737568877563319E-002  0.000000000000000E+000  0.000000000000000E+000
  -1.43893461337929       3.089578750030909E-005 -0.293931090735452     
  0.000000000000000E+000  0.000000000000000E+000 -5.769232768242762E-002
  8.788871097450272E-007 -4.722085816378389E-002  0.000000000000000E+000
  0.000000000000000E+000  0.000000000000000E+000  0.000000000000000E+000
  0.000000000000000E+000  0.000000000000000E+000 -1.082213057144960E-002
  6.894166552742923E-008 -1.934276746489623E-003  0.000000000000000E+000
  0.000000000000000E+000 -5.794017680010938E-002  4.081641702564106E-007
  9.338644752672407E-003  0.000000000000000E+000  0.000000000000000E+000
  -1.20346509724170       1.401848532437113E-005  0.456240812574005     
  0.000000000000000E+000  0.000000000000000E+000  -6.04097681020040     
  1.227842560147542E-004  -1.19898026100023       0.000000000000000E+000
  0.000000000000000E+000 -0.894000301010939       1.185999205975161E-005
 -0.791335098973476       0.000000000000000E+000  0.000000000000000E+000
  0.000000000000000E+000  0.000000000000000E+000  0.000000000000000E+000
  1.023103740243612E-005  1.074007316755206E-002  2.213289877439126E-002
 -1.518404543869192E-007  4.241255573092512E-003  2.685931574779082E-004
  5.876605351860862E-002  0.107884685098465      -8.264577691864517E-007
 -1.851360165805809E-002  8.744943217014667E-002   1.25524650541353     
   1.57535374615977      -2.213012602056476E-005 -0.717542169109292     
   1.53962201993631        6.32210432893769        5.27829694997816     
 -1.754052831448054E-004   1.67148515671734       6.041787870279206E-002
  0.959267804112251       0.873363705070993      -1.637595992523078E-005
   1.04166333140238       6.101480608454202E-003  0.562565549495855     
  0.313025022756874       5.978244431445560E-002  0.713557144351565     
  -16.2073451886824      -7.520393462460935E-011 -8.971860078513821E-008
 -1.988744304325472E-007 -1.394138375997913E-003 -3.523520489650215E-008
 -2.172932777020760E-009 -5.361023659792200E-007 -1.066999746384152E-006
 -8.611315401935328E-003  1.767886890060919E-007 -1.091242133881519E-006
 -1.679042320736056E-005 -2.520784038990446E-005 -0.314573064231497     
  1.014691772676519E-005 -3.328703965747480E-005 -1.493766965059110E-004
 -1.975225011070687E-004  -2.89715666922198      -3.281540115071569E-005
 -9.295348804179778E-007 -1.705526618360609E-005 -2.135155425699246E-005
 -0.284200254446834      -1.815293933207437E-005 -2.591274300349847E-008
 -5.111983383062497E-006 -5.785361996114770E-006 -1.108953464974961E-005
 -1.284986611087503E-004 -5.120747704202626E-005  -15.3460748461167     
  1.834195511756601E-006  1.932710198612391E-003  4.271053794720858E-003
 -2.702088867206297E-008 -8.043984156390257E-004 -3.926224925903470E-005
 -7.681756759442200E-003 -1.503459155657737E-002  1.134040654419440E-007
 -6.940141201215381E-003 -2.845551723101396E-002 -0.349088622635314     
 -0.541008225056006       6.939527022640686E-006 -0.132261021227802     
  0.315623879546962        1.35320727811004        1.77588894709674     
 -3.054045479025331E-005  -2.61965686954314       4.934240669647555E-002
  0.730549628777508       0.908254661593677      -1.202970790635517E-005
  0.496370215190669      -1.749251411975453E-003 -0.449439762063368     
  0.544073172481327       5.476145370050036E-002  0.634822660393591     
  0.127015720460483       9.558429503008203E-005  -15.7716735346987     
  0.000000000000000E+000  0.000000000000000E+000 -6.372505250596422E-009
 -2.539353864515034E-013  1.486554453707208E-010  0.000000000000000E+000
  0.000000000000000E+000 -1.080490803828310E-007 -4.807143762207877E-012
  3.277282449591069E-008  0.000000000000000E+000  0.000000000000000E+000
 -2.504473430589497E-004 -1.574402485782494E-008  1.237255349902820E-004
  0.000000000000000E+000  0.000000000000000E+000 -7.385794027479353E-002
 -6.346754263007346E-006  1.789669014356676E-002  0.000000000000000E+000
  0.000000000000000E+000 -8.952584258429545E-003 -6.378772557717527E-007
 -2.178264337257715E-003  0.000000000000000E+000  0.000000000000000E+000
  0.000000000000000E+000  0.000000000000000E+000  0.000000000000000E+000
  -1.43439373667526      -3.476026930474813E-004   1.28045050710786     
  0.000000000000000E+000  0.000000000000000E+000  0.000000000000000E+000
 -3.464134596623418E-004 -1.224709427358102E-008  6.343148500782672E-006
  0.000000000000000E+000  0.000000000000000E+000 -1.102466982183689E-003
 -4.319756960001220E-008  3.438294771415329E-004  0.000000000000000E+000
  0.000000000000000E+000 -5.301837473892224E-002 -2.947456682948772E-006
  2.721454922717853E-002  0.000000000000000E+000  0.000000000000000E+000
  -1.15179263444430      -9.212470728836033E-005  0.256881103390735     
  0.000000000000000E+000  0.000000000000000E+000 -0.328070636327485     
 -2.273335508026901E-005 -9.263256324008023E-002  0.000000000000000E+000
  0.000000000000000E+000  0.000000000000000E+000  0.000000000000000E+000
  0.000000000000000E+000  -4.60706830462370      -1.184215223660118E-003
   4.41141708985412       0.000000000000000E+000  0.000000000000000E+000
  7.579051831144038E-009  3.507649209756681E-004  8.817894450682457E-004
  3.249478118455196E-008 -1.801916174494783E-005  1.203933270356457E-007
  1.121544761810284E-003  2.519131108005050E-003  1.040556926989980E-007
 -8.289585967314668E-004  2.768086485448809E-004  5.435594014170994E-002
  8.723080055247420E-002  5.434649752777845E-006 -5.009399503730664E-002
  8.402583865878849E-002   1.17644599960568        1.55290851561502     
  1.492585060381368E-004 -0.420627883930963       9.949864329453641E-003
  0.340488646732790       0.512363412214648       4.028783174571375E-005
  0.164247782096065       7.566331844118526E-005  2.651743428676328E-002
  0.475687212399022        1.52856522736523        5.16586113212910     
   1.40136077857934       1.228274395211365E-003  -4.57753675003612     
  9.977439736886268E-002   1.15703148827946       -14.0618944030450     
  3.035059828830825E-013  1.564852582769239E-008  4.108749953215344E-008
 -3.603010539336922E-005 -6.965924124969904E-010  5.374494366859690E-012
  5.606003707508070E-008  1.330285778327243E-007 -1.268241981399058E-004
 -4.150966476934069E-008  1.743661425564506E-008  3.840258623700306E-006
  6.888875870268825E-006 -8.819799624880359E-003 -3.504995889199538E-006
  7.226517798165773E-006  1.087132129349259E-004  1.705944856139170E-004
 -0.285864615723338      -3.526637130210742E-005  7.094263768127655E-007
  2.502996342179324E-005  4.263249744791924E-005 -6.756458022998232E-002
  1.256245820316827E-005  3.648751161064203E-009  2.301363417305918E-006
  4.689277445091788E-005  3.689866283863302E-004  1.190489123448067E-003
  1.128628146034726E-003  -3.35323263392722      -1.057799681844236E-003
  1.356345686982753E-005  1.568102858403219E-004 -6.549727908005347E-005
  -13.4825233227642      -1.822402011623177E-010 -1.040469228590609E-005
 -2.857110231079510E-005 -9.126306449944311E-010 -3.978189542443242E-005
 -3.650635720850869E-008 -3.312793327820005E-004 -7.855582944402603E-004
 -3.077935620154977E-008  1.095991056739802E-004 -1.364945586607991E-004
 -2.599808015323682E-002 -4.677558650641544E-002 -2.577587832709606E-006
  1.475028267421346E-002 -2.036934260215168E-002 -0.311374933526017     
 -0.492359504333386      -3.626001719377183E-005 -0.193114988713574     
  2.404099658884746E-003  6.965760511258090E-002  0.120982021670731     
  8.908198628173141E-006 -3.907824686668799E-002 -3.053354091918484E-005
 -2.238611997848916E-002  0.292207015157455       -1.35825659114521     
  -4.33728602443750       -4.13571551802462      -1.039680562807504E-003
  0.499566146743707      -4.120963962276098E-002 -0.473822598158325     
  0.205716683305362       1.016540567654973E-004  -13.8656157725831     
  0.000000000000000E+000  0.000000000000000E+000 -9.278493265143865E-004
 -8.259369489468971E-008  2.120463931575470E-004  0.000000000000000E+000
  0.000000000000000E+000 -8.907474156434363E-004 -8.833297403175779E-008
  4.894593933931664E-004  0.000000000000000E+000  0.000000000000000E+000
 -1.689465776441729E-002 -2.452030629179865E-006  1.477604421054467E-002
  0.000000000000000E+000  0.000000000000000E+000 -0.456281197823162     
 -9.879068143569172E-005  0.324370833551808       0.000000000000000E+000
  0.000000000000000E+000 -0.517145688262397      -9.368318210044280E-005
  4.380823746842248E-002  0.000000000000000E+000  0.000000000000000E+000
  0.000000000000000E+000  0.000000000000000E+000  0.000000000000000E+000
 -0.728067441052985      -4.834131231516251E-004   1.74664590760788     
  0.000000000000000E+000  0.000000000000000E+000   1.34745412423308     
 -1.630682583967876E-003   5.72249763467625       0.000000000000000E+000
  0.000000000000000E+000  0.000000000000000E+000 -3.060865368418882E-003
  1.818826626319385E-007 -1.233362817181082E-003  0.000000000000000E+000
  0.000000000000000E+000 -3.672799019124310E-002  2.489925309959440E-006
 -3.665170799910363E-003  0.000000000000000E+000  0.000000000000000E+000
 -0.791820106608661       8.759628580425424E-005 -4.230156233880209E-002
  0.000000000000000E+000  0.000000000000000E+000  -1.49247322537089     
  2.524652499306773E-004  -1.14644484376531       0.000000000000000E+000
  0.000000000000000E+000 -9.591747292932561E-002  1.192782237393711E-005
 -0.121604907743753       0.000000000000000E+000  0.000000000000000E+000
  0.000000000000000E+000  0.000000000000000E+000  0.000000000000000E+000
  -1.17274972465023       1.598161393830272E-003  -6.14431847003019     
  0.000000000000000E+000  0.000000000000000E+000  0.841278958320366     
  4.758738936496513E-004  -1.78614142691341       0.000000000000000E+000
  0.000000000000000E+000  0.000000000000000E+000  0.000000000000000E+000
 -1.510907346323039E-005 -2.696911543267082E-010 -5.456545273933182E-007
  0.000000000000000E+000  0.000000000000000E+000 -7.812597597908541E-005
 -1.525769532345940E-009  1.628976276309443E-005  0.000000000000000E+000
  0.000000000000000E+000 -6.189279980380976E-003 -1.572475031306611E-007
  2.060924829613638E-003  0.000000000000000E+000  0.000000000000000E+000
 -0.131900958402189      -4.692731977071392E-006  9.510651675781011E-003
  0.000000000000000E+000  0.000000000000000E+000 -2.288740846899680E-002
 -7.562123409616155E-007 -6.793457296888103E-003  0.000000000000000E+000
  0.000000000000000E+000  0.000000000000000E+000  0.000000000000000E+000
  0.000000000000000E+000  -1.69403565802834      -1.560585483485855E-004
  0.570939277988614       0.000000000000000E+000  0.000000000000000E+000
  -5.01338929975005       4.705372996995985E-004  -1.77961969403302     
  0.000000000000000E+000  0.000000000000000E+000  0.000000000000000E+000
  0.000000000000000E+000  0.000000000000000E+000   1.43893458793349     
  3.089139372425147E-005  0.293931085765203       0.000000000000000E+000
  0.000000000000000E+000  5.769232561420202E-002  8.788204547178852E-007
  4.722085640594993E-002  0.000000000000000E+000  0.000000000000000E+000
  1.945728885384403E-004  1.707079054317115E-009  1.069234322209277E-004
  0.000000000000000E+000  0.000000000000000E+000  9.568581485186184E-006
  6.977307032519666E-011  1.713604343950902E-006  0.000000000000000E+000
  0.000000000000000E+000  2.554321043642809E-004  2.050957804504474E-009
 -3.758451804552904E-005  0.000000000000000E+000  0.000000000000000E+000
  0.000000000000000E+000  0.000000000000000E+000  0.000000000000000E+000
  0.000000000000000E+000  0.000000000000000E+000  0.000000000000000E+000
  0.000000000000000E+000  0.000000000000000E+000  0.000000000000000E+000
  0.000000000000000E+000  0.000000000000000E+000  0.000000000000000E+000
  0.000000000000000E+000  0.000000000000000E+000  0.000000000000000E+000
  0.000000000000000E+000  0.000000000000000E+000   6.04097675605735     
  1.227630210623035E-004   1.19898025117668       0.000000000000000E+000
  0.000000000000000E+000  0.894000282496378       1.185885383210192E-005
  0.791335081224306       0.000000000000000E+000  0.000000000000000E+000
  4.766360555057604E-002  3.549785012181138E-007  2.689454120347749E-002
  0.000000000000000E+000  0.000000000000000E+000  1.082213031673022E-002
  6.899106317355835E-008  1.934276702620772E-003  0.000000000000000E+000
  0.000000000000000E+000  5.794017543771859E-002  4.084302634606281E-007
 -9.338644436985255E-003  0.000000000000000E+000  0.000000000000000E+000
  0.000000000000000E+000  0.000000000000000E+000  0.000000000000000E+000
  3.293513756353383E-005 -3.671580614362341E-011  6.119396347446561E-006
  0.000000000000000E+000  0.000000000000000E+000  4.102151217658038E-007
  1.596046287375389E-011  1.048122667860029E-008  0.000000000000000E+000
  0.000000000000000E+000  0.000000000000000E+000  0.000000000000000E+000
  0.000000000000000E+000  -1.53962199329482       -6.32210427097231     
   5.27829692671788       1.753770037002959E-004   1.67148514467505     
 -6.041787656930981E-002 -0.959267783991973       0.873363691052744     
  1.637454592623925E-005   1.04166331037893      -2.035049984043776E-004
 -4.863098483004825E-002  7.760666833491608E-002  6.477299026551961E-007
  4.834868381864506E-002 -1.023103694161836E-005 -1.074007291634687E-002
  2.213289828709774E-002  1.519471596007678E-007  4.241255482284880E-003
 -2.685931455516367E-004 -5.876605214673870E-002  0.107884682774422     
  8.269915304111468E-007 -1.851360105899057E-002 -0.313025033699660     
 -4.463683583483650E-003 -6.101480780052383E-003  0.000000000000000E+000
 -3.293513756195209E-005  9.038321033488511E-005 -1.060822952319025E-010
  1.747427114545413E-005  0.000000000000000E+000 -4.115927856184172E-007
  1.340384256248825E-006  5.373482640325185E-011  3.468200247083199E-008
 -4.171139915294648E-006 -1.330609781061995E-005 -1.235084469195377E-008
 -5.978244376297281E-002 -0.713557138484413       -16.2073451618862     
 -3.328239123493014E-005 -1.493599980576233E-004  1.975000185426921E-004
  -2.89715662706119       3.281061329283165E-005 -9.294660321350458E-007
 -1.705429403657874E-005  2.135042315804521E-005 -0.284200247113079     
  1.815183855451134E-005 -1.804239753527045E-009 -5.002122856908222E-007
  8.897820737499956E-007 -7.952704785512276E-003  4.981596608102992E-007
 -7.524643962529337E-011 -8.975880785011337E-008  1.989616981596129E-007
 -1.394138340724556E-003  3.525133918509943E-008 -2.174049901926738E-009
 -5.363220203881203E-007  1.067434579968391E-006 -8.611315176895451E-003
 -1.768535675749078E-007 -5.782017441146322E-006 -2.992534684952239E-008
 -2.594980886828703E-008  0.000000000000000E+000 -3.679268465740630E-011
  1.062986189272236E-010 -3.231042902970062E-006  1.975086086661509E-011
  0.000000000000000E+000 -1.365716362125251E-011  4.576361724827652E-011
 -3.396274804863856E-008  1.090234781600907E-012 -3.135975204066055E-010
  5.270410552926273E-010 -2.350408450615507E-013 -1.109005753589714E-005
 -1.285049138440790E-004  5.121228057721915E-005  -15.3460748265336     
 -0.315623874325762       -1.35320726707928        1.77588893478766     
  3.053416149877946E-005  -2.61965682837713      -4.934240488747858E-002
 -0.730549612719299       0.908254643843841       1.202852858616791E-005
  0.496370205956419      -1.117135119329961E-004 -2.593967480111518E-002
  4.577531105707900E-002  3.423522059027715E-007  1.704829612266207E-002
 -1.834195430084740E-006 -1.932710153829601E-003  4.271053700562790E-003
  2.704063203549551E-008 -8.043983919965897E-004  3.926224705922212E-005
  7.681756480238781E-003 -1.503459102823306E-002 -1.134689666689217E-007
 -6.940141063516897E-003 -0.544073195175601      -3.274504108662448E-003
  1.749251483791037E-003  0.000000000000000E+000 -6.119396346616794E-006
  1.747427114390774E-005 -1.970941993265906E-011 -3.945421427376954E-007
  0.000000000000000E+000 -1.040719612976428E-008  3.431257655388156E-008
  1.279530195893491E-012 -3.673436032671883E-008  5.531892131195869E-007
 -4.762725162888636E-006 -7.865690452222981E-010 -5.476145398621656E-002
 -0.634822663503916       0.127015722421919      -9.559123454050430E-005
  -15.7716735165591       0.000000000000000E+000  0.000000000000000E+000
   1.49247321217066       2.524822806424528E-004   1.14644483566161     
  0.000000000000000E+000  0.000000000000000E+000  9.591747089022590E-002
  1.192875008528982E-005  0.121604905257855       0.000000000000000E+000
  0.000000000000000E+000  5.709517752270382E-003  4.211253697449054E-007
  4.655772963595347E-003  0.000000000000000E+000  0.000000000000000E+000
  3.060865332661647E-003  1.819117184674909E-007  1.233362804756451E-003
  0.000000000000000E+000  0.000000000000000E+000  3.672798965912428E-002
  2.490297847077291E-006  3.665170806702464E-003  0.000000000000000E+000
  0.000000000000000E+000  0.000000000000000E+000  0.000000000000000E+000
  0.000000000000000E+000  1.330609801256600E-005  5.271223528039708E-010
  4.762725243739052E-006  0.000000000000000E+000  0.000000000000000E+000
  4.878346298769631E-007  3.583907778396004E-011  8.191176576648593E-008
  0.000000000000000E+000  0.000000000000000E+000  0.000000000000000E+000
  0.000000000000000E+000  0.000000000000000E+000   1.17274969317293     
  1.598316828291097E-003   6.14431846239208       0.000000000000000E+000
  0.000000000000000E+000 -3.145218549203007E-002  7.385793948307945E-002
 -6.347402546779390E-006 -1.789668997088089E-002  0.000000000000000E+000
 -3.151282937980047E-003  8.952584054639570E-003 -6.379355808986384E-007
  2.178264290534128E-003  0.000000000000000E+000 -1.051345873007823E-006
  4.336813056235045E-006 -2.118270934004803E-010  9.468456531846124E-007
  0.000000000000000E+000 -1.268088088966179E-009  6.372505107730280E-009
 -2.539344905359199E-013 -1.486554435434568E-010  0.000000000000000E+000
 -2.456287784732825E-008  1.080490772259767E-007 -4.807176446900228E-012
 -3.277282345706804E-008 -2.303767947009523E-002 -4.061889461252800E-007
 -2.012255835993840E-009  0.000000000000000E+000  0.000000000000000E+000
  0.000000000000000E+000  0.000000000000000E+000  0.000000000000000E+000
  0.000000000000000E+000  0.000000000000000E+000  0.000000000000000E+000
[...]
  -13.8656157698363      -2.233880732115451E-002 -0.389120186455768     
  0.456281202545841      -9.880005658624967E-005 -0.324370838671900     
 -2.210383804956203E-002 -0.361754951986755       0.517145695694761     
 -9.369149389255415E-005 -4.380823794949323E-002 -8.115106407194147E-005
 -1.235842369134421E-002  2.289224149518330E-002 -2.598471822273441E-006
  1.318231514337979E-004 -2.264479468660103E-007 -4.194666799742705E-004
  9.278493527906548E-004 -8.259687363233704E-008 -2.120463998688884E-004
 -2.412515320139170E-007 -4.476707790847611E-004  8.907474366365981E-004
 -8.833681171953222E-008 -4.894594051858378E-004  -1.09112544988194     
 -4.042111384411988E-003 -2.411800708528332E-005  0.000000000000000E+000
 -1.476733854474174E-006  4.171140194309023E-006 -3.136131385030593E-010
 -5.531892535607741E-007  0.000000000000000E+000 -4.043080426789287E-009
  1.326179818104788E-008 -3.537940188517193E-013 -3.149185961621048E-009
 -1.757561118509837E-008 -2.492452064105368E-006  0.000000000000000E+000
 -0.159490705481173       -1.51667944379293       0.728067432122940     
 -4.834512038070703E-004  -1.74664592214595      -0.218149792051350     
  -1.66515993526020       -6.62200052012949       -1.34745418469287     
 -1.630824393707257E-003  -5.72249761916011       -11.7658480859720     
 -1.752372439585951E-003 -7.954748326886341E-002  0.131900956368398     
 -4.693255208612168E-006 -9.510651886159106E-003 -9.333388679969800E-005
 -1.272647957302601E-002  2.288740811707506E-002 -7.562767190096750E-007
  6.793457136079442E-003 -3.211984216662421E-008 -1.238935933965606E-004
  2.836886748261368E-004 -6.417975796441843E-009  7.393196583732305E-005
  0.000000000000000E+000 -5.581310078504521E-006  1.510907313405307E-005
 -2.696577152217089E-010  5.456544909552058E-007 -2.266016622003804E-009
 -3.150196333785057E-005  7.812597333632262E-005 -1.525617253561657E-009
 -1.628976227487832E-005 -3.497497691169046E-002 -2.309896773501209E-005
 -2.775074783670114E-006  0.000000000000000E+000 -3.648710882262674E-009
  1.235084484599025E-008 -2.350283515217338E-013  7.865690362582435E-010
  0.000000000000000E+000  0.000000000000000E+000  0.000000000000000E+000
  0.000000000000000E+000  0.000000000000000E+000  0.000000000000000E+000
 -4.466367638036016E-009  0.000000000000000E+000 -0.164940863858387     
  -1.45701087642195        1.69403564957294      -1.560670722088691E-004
 -0.570939286226901      -0.682342976090690       -1.65861319969561     
  -6.26603576840081        5.01338931336898       4.705863076326582E-004
   1.77961964675836       -1.84267024777472       -10.5481571383892     
 -2.981689518931171E-005  -1.08321468570869       -1.17458601529140     
  2.194131248096379E-006   1.35957981826304       0.000000000000000E+000
 -5.158592854146841E-002 -2.003802808288263E-002  3.284292412206545E-008
  0.118183583716675       0.000000000000000E+000 -1.187092802619804E-002
  1.103488157049695E-002 -8.268303808362031E-011  2.970534724874514E-002
  0.000000000000000E+000 -4.774843907316879E-002  8.683440692675223E-002
  7.958182450886647E-008  7.053675633497251E-002 -4.378581454283400E-005
  -1.14359265018866        1.87081384414749       9.157309118078204E-007
  0.303840314951082      -2.461157068708798E-003 -3.323307734836701E-004
 -0.160344240256688       0.000000000000000E+000 -6.371629184114158E-005
  2.035050048326326E-004 -1.803648796240213E-009  1.117135152737171E-004
  0.000000000000000E+000 -1.165688900843186E-006  4.814296599341292E-006
  2.356201597029394E-010  1.045724049690739E-006 -8.115105922730823E-005
 -8.175704207240717E-006 -3.211984223317447E-008  0.000000000000000E+000
 -3.836720294482338E-002 -8.744943168507478E-002 -1.091375965745861E-006
  2.845551684386900E-002 -4.032456601349677E-002  0.000000000000000E+000
 -8.584388044385617E-005 -2.768086507288382E-004  1.743772042275558E-008
  1.364945595849993E-004 -6.602278119591969E-005 -8.114905865340902E-006
  -31.3474136623208       -1.11038212548159       -6.62668494609077     
  -4.77361875608571       8.019402156785673E-006   5.22822131298591     
 -5.175113519049090E-002  -1.11368063931193      -0.261482318598947     
  2.256791548391881E-008   1.62458882992330      -1.187092802571991E-002
 -0.474522697258046       0.265376681521275      -1.637672302342149E-007
  0.715220339130542      -4.889168855354333E-002  -1.05989896568053     
   1.21586830775730       8.033339780660093E-007  0.994742560933457     
  -1.14710753921075       -6.69133802347589        7.09590780149148     
  1.302312427771462E-006  0.837474215715074      -0.113284417828413     
 -3.271399546210845E-002  -1.59317749855387      -6.095099233114552E-005
 -2.763970038000226E-002  4.863098567292462E-002 -5.000929431978326E-007
  2.593967521450593E-002 -1.051345872794162E-006 -2.999431942710061E-003
  6.739197183903816E-003  3.529341661629266E-007  1.311496970007877E-003
 -1.235842325043857E-002 -3.599038289581140E-003 -1.238935937558173E-004
 -3.671558804919980E-002 -0.859565504961748       -1.25524650047337     
 -1.679214172119784E-005  0.349088618075458      -0.569918451751195     
 -7.779104848811907E-005 -3.047161783011794E-002 -5.435594031163547E-002
  3.840516554674915E-006  2.599808021354664E-002 -1.192390384770963E-002
 -3.199958389870625E-003  -7.65231933804154       -18.2649635928610     
   1.20101266628684        4.53629618531469       0.519114364962565     
 -7.686254190010670E-006  -4.58842411955888       2.002990052426579E-002
  0.287388289015226      -0.382796843395414       3.156686088070532E-008
 -0.459603785139712      -1.103488156998319E-002 -0.265376681475013     
 -2.684935481649706E-002 -9.027029883488006E-008  0.431712985959836     
 -8.889658008285567E-002  -1.22710815608100        1.11389137319333     
  1.001814864373324E-006   1.26329583017086       -1.87552754391317     
  -7.00784394899943        5.78856220448295       1.976717197781045E-006
   1.20788013436891       5.978658151781840E-002 -2.054608971347615E-002
  -1.95683497708522      -1.945728948345400E-004 -4.766360639559895E-002
  7.760666964202084E-002 -8.895715552747692E-007  4.577531176992904E-002
 -4.336813055860662E-006 -6.455336591662749E-003  1.372420952035442E-002
  7.617335762704924E-007  2.837149132125693E-003 -2.289224072475619E-002
 -5.709517827594372E-003 -2.836886755529902E-004  8.359294044745605E-002
   1.20346509245165        1.57535374239094       2.521045483922479E-005
 -0.541008218666989       0.791820105718486       2.504473449970044E-004
  5.301837490583611E-002  8.723080081786547E-002 -6.889335558294226E-006
 -4.677558661726820E-002  1.689465822818433E-002  6.189279901331829E-003
 -2.259530214422796E-002 -0.260909449912577       -17.5914763638165     
 -2.263379892653261E-006 -9.490730140488852E-006 -9.018493401238825E-006
  -3.45352658630805       8.695826582373527E-006 -3.452270109865977E-008
 -8.505793158593511E-007 -1.599929613911462E-007 -0.413097455861330     
  1.244288159452643E-006 -1.521598564261223E-010 -1.654516925162686E-007
  9.112336820188011E-008 -0.164406639214469       2.456286394552552E-007
 -8.244484093318007E-008 -1.429999939540563E-006  1.696743332571505E-006
 -0.391460559123705       1.435042037442811E-006 -9.562158743584345E-007
 -5.372515446186737E-006  6.251203482333090E-006  -3.52344018050705     
  5.823966096233784E-007  8.201281707199669E-007  1.618688561285219E-007
  1.519245698421458E-005  1.706512684523041E-009  3.548171974777016E-007
 -6.474403090209156E-007 -7.952704933137466E-003 -3.421969392936082E-007
 -2.118197670036431E-010 -2.921588105645586E-007  6.569090223142255E-007
 -8.495834950754465E-004  1.316697848544469E-007 -2.598319342815826E-006
  4.210701913892573E-007 -6.418183597841665E-009  1.036032765865698E-006
  1.402047086770547E-005  2.213321750818840E-005 -0.314573062540250     
 -6.940257503086101E-006  8.760486983234664E-005 -1.574502439313619E-008
 -2.947629390185307E-006 -5.434966177540637E-006 -8.819799657451588E-003
  2.577740921447619E-006 -2.452212542060556E-006 -1.572517552183091E-007
 -2.748625204792381E-007 -3.436955022833084E-006 -1.834302449914267E-006
  -16.7398334684831       -1.39642883513148       -5.61425894398729     
  -5.04887702000688       8.013326573509130E-006   2.04323589666402     
 -0.118578728029917       -1.62174040631293      -0.421067895284892     
  4.802973576889234E-008   2.15002621691880      -2.970534724752312E-002
 -0.715220339147844       0.431712986060019      -2.428538876152477E-007
  0.978787539534976      -7.232992414563692E-002 -0.994082383890592     
   1.25078083710628       8.583220937786669E-007  0.597367337533502     
 -0.311168126151823       -1.47943166728215        1.89308466253940     
  2.200311637137056E-007  -3.38601831145292      -0.178112188815092     
 -5.526087547856721E-002  0.456774251785320      -1.069234355021649E-004
 -2.689454162652083E-002  4.834868454450860E-002 -4.980403547636391E-007
  1.704829631238904E-002 -9.468456508968334E-007 -1.560454611708075E-003
  3.525875642890683E-003  1.881852100109062E-007 -2.398358331362835E-004
 -1.318231340839098E-004 -4.655773010761009E-003 -7.393196644494033E-005
 -2.737568838295744E-002 -0.456240807679226      -0.717542162205531     
 -1.014776096135658E-005 -0.132261023063631       4.230156436412194E-002
 -1.237255358099612E-004 -2.721454927697154E-002 -5.009399513156272E-002
  3.505233023100163E-006  1.475028266616802E-002 -1.477604466310578E-002
 -2.060924810184127E-003 -0.103420211759999       -1.20710940804103     
  7.571193450713051E-002 -2.554816748197782E-006  -17.3109997980362     
 -0.158055168296249       -1.59501726093028      -0.587003467156923     
  1.294696980506260E-005   1.91226956088212      -2.511540670460229E-003
 -0.114265164812383      -1.401657218805295E-003  6.228662032286550E-007
  0.189066879978394      -3.323307735356323E-004 -3.271399546181492E-002
  2.054608891975300E-002  1.612772513196685E-007  5.526087576752975E-002
 -2.403699772876250E-003 -0.108084498579573       0.119901572753898     
  6.516162901135357E-007  0.132911206915137      -0.159548968644629     
  -1.58015514759801        1.69071298856848       1.128487288395972E-005
   1.04724799129941      -1.277029027542165E-002 -1.931499116040278E-003
 -0.724356192410739      -5.029490089526560E-006 -2.655112993903594E-003
  4.463684033492369E-003 -2.996784499080008E-008  3.274504497597252E-003
 -4.061890454251515E-007 -5.402170541218102E-004  1.143428860518635E-003
  5.825692278666838E-008  4.327443414613234E-004 -4.042111777142170E-003
 -2.621330038655901E-004 -2.309897115176043E-005 -3.270406595511649E-002
 -0.504432773020819      -0.562565499539627      -5.125709152055954E-006
  0.449439713310492      -0.819535821830421      -1.496887334316459E-004
 -1.890055482851037E-002 -2.651743087236719E-002  2.301123924155265E-006
  2.238611687639992E-002 -3.923857808277535E-003 -3.668885518711818E-003
  -1.85021707404344       -7.71089698414245        2.36751125289421     
  8.091697897031589E-005   6.15579176833474       -13.2392122013767     
 
   Difference densities algorithm switched on.
   The maximal number of linear combinations of
   difference densities is          20 .

 automatic virtual orbital shift switched on 
      shift if e(lumo)-e(homo) < 0.10000000    


 scf orbitals will not be ordered according to energy

 DIIS switched on: error vector is FDS-SDF
 Max. Iterations for DIIS is     :   4
 DIIS matrix (see manual) 
    Scaling factor of diagonals  :  1.200
    threshold for scaling factor :  0.000

 scf convergence criterion : increment of total energy < .1000000D-05
                  and increment of one-electron energy < .1000000D-02


 <geterg> : there is no data group $energy 

  MOs are in ASCII format !


 reading orbital data $scfmo  from file mos . 

 orbital characterization : scfconv=6
 

 DSCF restart information will be dumped onto file mos


   disc space (kbyte) allocation for  1 2e-integral file(s) :
   --------------------------------------------------------
   twoint.nano00.out1                                     0
   --------------------------------------------------------

 maximum number of buffers which may be written onto 2e-file(s) =         0


  STARTING INTEGRAL EVALUATION FOR 1st SCF ITERATION
  time elapsed for pre-SCF steps : cpu            0.524 sec
                                   wall           0.673 sec

 WARNING: no static tasks at all 
 continue fully direct - check size of twoint files
          no static tasks, this client runs in fully direct mode
 
                                              current damping :  0.700
 ITERATION  ENERGY          1e-ENERGY        2e-ENERGY     NORM[dD(SAO)]  TOL
   1  -382.34543728665    -1396.8009739     570.56295617    0.000D+00 0.556D-09
                            Exc =   -57.835276953370     N = 69.997494717    
          max. resid. norm for Fia-block=  7.932D-06 for orbital     33a         
          max. resid. fock norm         =  8.105D-06 for orbital     33a         
          Delta Eig. =     0.0000003483 eV 
 
                                              current damping :  0.700
 ITERATION  ENERGY          1e-ENERGY        2e-ENERGY     NORM[dD(SAO)]  TOL
   2  -382.34543726842    -1396.8011635     570.56314584    0.802D-04 0.352D-09
                            Exc =   -57.835277095808     N = 69.997494709    
          Norm of current diis error: 0.29707E-04
          max. resid. norm for Fia-block=  2.817D-06 for orbital     33a         
          max. resid. fock norm         =  2.887D-06 for orbital     33a         
          Delta Eig. =     0.0001785198 eV 

 ENERGY CONVERGED !

 
                                              current damping :  0.500
 ITERATION  ENERGY          1e-ENERGY        2e-ENERGY     NORM[dD(SAO)]  TOL
   3  -382.34575351186    -1396.8011041     570.56277020    0.162D-04 0.323D-09
                            Exc =   -57.835593370139     N = 69.999813370    
          max. resid. norm for Fia-block=  3.490D-06 for orbital     33a         
          max. resid. fock norm         =  3.509D-06 for orbital     33a         

 convergence criteria satisfied after  3 iterations


                  ------------------------------------------ 
                 |  total energy      =   -382.34575351186  |
                  ------------------------------------------ 
                 :  kinetic energy    =    375.67398556332  :
                 :  potential energy  =   -758.01973907518  :
                 :  virial theorem    =      1.98255043272  :
                 :  wavefunction norm =      1.00000000000  :
                  .......................................... 


 <geterg> : there is no data group $energy 


 <skperg> : $end is missing 


 orbitals $scfmo  will be written to file mos

    irrep                 31a         32a         33a         34a         35a   
 eigenvalues H         -0.24559    -0.22626    -0.17736    -0.16527    -0.12667
            eV          -6.6830     -6.1570     -4.8261     -4.4972     -3.4470
 occupation              2.0000      2.0000      2.0000      2.0000      2.0000 

    irrep                 36a         37a         38a         39a         40a   
 eigenvalues H          0.00569     0.05480     0.06945     0.13751     0.21871
            eV           0.1548      1.4911      1.8898      3.7420      5.9513
 
 
 
 
 ==============================================================================
                           electrostatic moments
 ==============================================================================
 
              nuc           elec       ->  total
 ------------------------------------------------------------------------------
                          charge      
 ------------------------------------------------------------------------------
          70.000000     -70.000000       0.000000
 
 ------------------------------------------------------------------------------
                       dipole moment  
 ------------------------------------------------------------------------------
   x       0.000000       0.000000       0.000000
   y       0.000225      -0.000243      -0.000018
   z       0.000000       0.000000       0.000000
 
   | dipole moment | =     0.0000 a.u. =     0.0000 debye 
 
 ------------------------------------------------------------------------------
                     quadrupole moment
 ------------------------------------------------------------------------------
  xx    1510.541910   -1547.793714     -37.251804
  yy       0.000004     -43.644442     -43.644438
  zz     247.057400    -284.064780     -37.007380
  xy       0.000000       0.000000       0.000000
  xz      -5.625162       5.662157       0.036995
  yz       0.000000       0.000000       0.000000
 
     1/3  trace=     -39.301207
     anisotropy=       6.518599
 
 ==============================================================================
 
 could not remove file twoint.nano00.out1

 bye bye cruel world ....
 PARALLEL run finished by another client


    ------------------------------------------------------------------------
         total  cpu-time :   1.23 seconds
         total wall-time :   1.59 seconds
    ------------------------------------------------------------------------


   ****  dscf : all done  ****


    2016-01-11 18:06:01.994 


    dscf profiling
  --------------------------------------------------------------------
             module   cpu total (s)       %  wall total (s)       %

          dscf.total             0.7  100.00             1.0  100.00
        dscf.prepare             0.0    2.07             0.0    1.52
      prepare.oneint             0.0    0.55             0.0    0.51
     prepare.moinput             0.0    0.41             0.0    0.20
     prepare.orthmos             0.0    0.00             0.0    0.00
            dscf.scf             0.7   97.38             1.0   96.35
             scf.pre             0.0    0.14             0.0    1.42
        scf.makedmat             0.0    0.00             0.1    7.40
          scf.shlupf             0.3   41.10             0.3   30.32
         dscf.client             0.0    0.97             0.0    1.22
       dscf.senddens             0.0    0.00             0.0    0.00
         dscf.shloop             0.3   39.03             0.3   27.99
     dscf.gatherfock             0.0    0.00             0.0    0.00
          scf.symcar             0.0    0.00             0.0    0.00
        scf.makefock             0.0    0.00             0.1    5.98
          scf.energy             0.0    0.00             0.0    0.00
          scf.pardft             0.4   55.03             0.4   40.37
        dft_grid_con             0.1   15.59             0.1   12.37
           dft_xcrhf             0.3   39.03             0.3   27.38
          dft_getval             0.2   21.24             0.2   15.52
          funct2 dst             0.0    1.52             0.0    1.01
      funct2 f2loop1             0.0    6.34             0.0    4.06
      funct2 f2loop2             0.0    6.34             0.1    5.27
          funct2 s+c             0.0    3.59             0.0    2.64
        funct2 cmf_2             0.0    2.07             0.0    1.83
          dft_mkdens             0.1    8.83             0.0    4.97
         dft_gga-fun             0.0    2.62             0.0    2.43
          dft_mkfock             0.0    3.45             0.0    2.64
          scf.newerg             0.0    0.00             0.0    0.00
          scf.newcnv             0.0    0.00             0.0    0.00
           scf.fdiag             0.0    0.14             0.0    0.20
         diag_tritrn             0.0    0.00             0.0    0.10
          diag_rdiag             0.0    0.14             0.0    0.10
          scf.modump             0.0    0.41             0.0    2.03
            scf.post             0.0    0.41             0.0    4.97
        dscf.postscf             1.2  170.34    1452535562.0  ******
 
